VARIABLES="w (rad/s)"
"abs(F   1   1)" "angle(F   1   1)"
"abs(F   1   2)" "angle(F   1   2)"
"abs(F   1   3)" "angle(F   1   3)"
Zone t="Diffraction force - beta =   0.000 deg",I=    32,F=POINT
  0.1000000E+00  0.6964153E+03 -0.1570796E+01  0.1041658E+04 -0.3130755E+01  0.1925366E+04 -0.1570796E+01
  0.2000000E+00  0.2785834E+04 -0.1570787E+01  0.4261646E+04 -0.3100499E+01  0.7702253E+04 -0.1570786E+01
  0.3000000E+00  0.6222657E+04 -0.1570688E+01  0.9719977E+04 -0.3054978E+01  0.1720034E+05 -0.1570687E+01
  0.4000000E+00  0.1099309E+05 -0.1570209E+01  0.1733210E+05 -0.2998846E+01  0.3037377E+05 -0.1570201E+01
  0.5000000E+00  0.1700712E+05 -0.1568649E+01  0.2681321E+05 -0.2936356E+01  0.4695978E+05 -0.1568620E+01
  0.6000001E+00  0.2418484E+05 -0.1564707E+01  0.3770242E+05 -0.2871090E+01  0.6673056E+05 -0.1564623E+01
  0.7000000E+00  0.3262160E+05 -0.1556416E+01  0.4943638E+05 -0.2805953E+01  0.8993245E+05 -0.1556214E+01
  0.8000001E+00  0.4206563E+05 -0.1541092E+01  0.6141866E+05 -0.2743067E+01  0.1158203E+06 -0.1540663E+01
  0.9000000E+00  0.5235139E+05 -0.1515553E+01  0.7306376E+05 -0.2683907E+01  0.1439373E+06 -0.1514734E+01
  0.1000000E+01  0.6329533E+05 -0.1476905E+01  0.8388519E+05 -0.2629392E+01  0.1736846E+06 -0.1475448E+01
  0.1100000E+01  0.7413870E+05 -0.1422258E+01  0.9343318E+05 -0.2579958E+01  0.2029702E+06 -0.1419842E+01
  0.1200000E+01  0.8359359E+05 -0.1349528E+01  0.1014339E+06 -0.2535898E+01  0.2281570E+06 -0.1345614E+01
  0.1300000E+01  0.9074522E+05 -0.1259729E+01  0.1076150E+06 -0.2496905E+01  0.2468066E+06 -0.1253705E+01
  0.1400000E+01  0.9403954E+05 -0.1155105E+01  0.1118260E+06 -0.2462973E+01  0.2545741E+06 -0.1145899E+01
  0.1500000E+01  0.9234862E+05 -0.1039433E+01  0.1139819E+06 -0.2433969E+01  0.2484925E+06 -0.1025400E+01
  0.1600000E+01  0.8510827E+05 -0.9169373E+00  0.1140662E+06 -0.2409683E+01  0.2273326E+06 -0.8954906E+00
  0.1700000E+01  0.7276659E+05 -0.7896637E+00  0.1121274E+06 -0.2390133E+01  0.1924879E+06 -0.7557197E+00
  0.1800000E+01  0.5632662E+05 -0.6528477E+00  0.1082652E+06 -0.2375121E+01  0.1471428E+06 -0.5956361E+00
  0.1900000E+01  0.3725829E+05 -0.4810353E+00  0.1026436E+06 -0.2364721E+01  0.9595358E+05 -0.3698490E+00
  0.2000000E+01  0.1751001E+05 -0.1183241E+00  0.9547005E+05 -0.2359097E+01  0.4748255E+05  0.1652849E+00
  0.2100000E+01  0.1056221E+05  0.1629927E+01  0.8699416E+05 -0.2358691E+01  0.4293212E+05  0.1609313E+01
  0.2200000E+01  0.2821422E+05  0.2336673E+01  0.7750476E+05 -0.2364361E+01  0.8715388E+05  0.2209867E+01
  0.2300000E+01  0.4696234E+05  0.2519878E+01  0.6728679E+05 -0.2378877E+01  0.1344820E+06  0.2417565E+01
  0.2400000E+01  0.6390200E+05  0.2621022E+01  0.5653227E+05 -0.2412328E+01  0.1766986E+06  0.2534507E+01
  0.2500000E+01  0.7822015E+05  0.2693371E+01  0.4224870E+05 -0.2631462E+01  0.2113871E+06  0.2616904E+01
  0.2600000E+01  0.8936339E+05  0.2751388E+01  0.3822620E+05 -0.2315523E+01  0.2371010E+06  0.2682005E+01
  0.2700000E+01  0.9696853E+05  0.2800849E+01  0.2825155E+05 -0.2391755E+01  0.2530325E+06  0.2737160E+01
  0.2800000E+01  0.1007404E+06  0.2844604E+01  0.1969699E+05 -0.2440861E+01  0.2586357E+06  0.2785937E+01
  0.2900000E+01  0.1006566E+06  0.2884843E+01  0.1235706E+05 -0.2490885E+01  0.2541292E+06  0.2831351E+01
  0.3000000E+01  0.9676445E+05  0.2919381E+01  0.6338910E+04 -0.2539048E+01  0.2396971E+06  0.2871538E+01
  0.3100000E+01  0.8866865E+05  0.2906421E+01  0.1689411E+04 -0.2507482E+01  0.2094650E+06  0.2859412E+01
  0.3200000E+01  0.7900209E+05  0.3038360E+01  0.1735903E+04  0.2205700E+00  0.1937046E+06  0.3014050E+01
