VARIABLES="w (rad/s)"
"abs(F   1   1)" "angle(F   1   1)"
"abs(F   1   2)" "angle(F   1   2)"
"abs(F   1   3)" "angle(F   1   3)"
Zone t="Diffraction force - beta =   0.000 deg",I=    32,F=POINT
  0.1000000E+00  0.2022413E+04 -0.1570799E+01  0.4652389E+06 -0.2426488E-04  0.5664925E+04 -0.1570796E+01
  0.2000000E+00  0.8065370E+04 -0.1570794E+01  0.4580545E+06 -0.3822202E-03  0.2259059E+05 -0.1570792E+01
  0.3000000E+00  0.1800993E+05 -0.1570759E+01  0.4460644E+06 -0.1885023E-02  0.5043686E+05 -0.1570760E+01
  0.4000000E+00  0.3172033E+05 -0.1570593E+01  0.4295008E+06 -0.5740892E-02  0.8880835E+05 -0.1570593E+01
  0.5000000E+00  0.4893623E+05 -0.1570050E+01  0.4089017E+06 -0.1336424E-01  0.1369532E+06 -0.1570050E+01
  0.6000001E+00  0.6935934E+05 -0.1568673E+01  0.3850669E+06 -0.2616646E-01  0.1940149E+06 -0.1568673E+01
  0.7000000E+00  0.9281881E+05 -0.1565742E+01  0.3589419E+06 -0.4537951E-01  0.2594717E+06 -0.1565742E+01
  0.8000001E+00  0.1187460E+06 -0.1560275E+01  0.3314906E+06 -0.7196193E-01  0.3316620E+06 -0.1560275E+01
  0.9000000E+00  0.1465996E+06 -0.1551077E+01  0.3036051E+06 -0.1065399E+00  0.4090414E+06 -0.1551077E+01
  0.1000000E+01  0.1757432E+06 -0.1537024E+01  0.2759994E+06 -0.1495128E+00  0.4897003E+06 -0.1537023E+01
  0.1100000E+01  0.2048568E+06 -0.1517211E+01  0.2492527E+06 -0.2009862E+00  0.5699289E+06 -0.1517215E+01
  0.1200000E+01  0.2319599E+06 -0.1491622E+01  0.2237127E+06 -0.2610988E+00  0.6440947E+06 -0.1491620E+01
  0.1300000E+01  0.2553538E+06 -0.1461810E+01  0.1996785E+06 -0.3298235E+00  0.7075089E+06 -0.1461811E+01
  0.1400000E+01  0.2727342E+06 -0.1431103E+01  0.1772848E+06 -0.4070984E+00  0.7536676E+06 -0.1431100E+01
  0.1500000E+01  0.2824756E+06 -0.1404373E+01  0.1565918E+06 -0.4928647E+00  0.7781565E+06 -0.1404372E+01
  0.1600000E+01  0.2839869E+06 -0.1387483E+01  0.1376079E+06 -0.5871150E+00  0.7796111E+06 -0.1387483E+01
  0.1700000E+01  0.2781419E+06 -0.1385538E+01  0.1202788E+06 -0.6898723E+00  0.7605248E+06 -0.1385538E+01
  0.1800000E+01  0.2666118E+06 -0.1402176E+01  0.1045543E+06 -0.8012345E+00  0.7257626E+06 -0.1402170E+01
  0.1900000E+01  0.2514152E+06 -0.1439039E+01  0.9034586E+05 -0.9214482E+00  0.6809313E+06 -0.1439028E+01
  0.2000000E+01  0.2342535E+06 -0.1496502E+01  0.7756057E+05 -0.1050867E+01  0.6309381E+06 -0.1496496E+01
  0.2100000E+01  0.2164861E+06 -0.1573679E+01  0.6609246E+05 -0.1190090E+01  0.5795432E+06 -0.1573649E+01
  0.2200000E+01  0.1989927E+06 -0.1669236E+01  0.5583188E+05 -0.1340258E+01  0.5291299E+06 -0.1669197E+01
  0.2300000E+01  0.1822815E+06 -0.1781786E+01  0.4659117E+05 -0.1504103E+01  0.4811281E+06 -0.1781753E+01
  0.2400000E+01  0.1666131E+06 -0.1909994E+01  0.3794623E+05 -0.1691822E+01  0.4362592E+06 -0.1909917E+01
  0.2500000E+01  0.1520888E+06 -0.2052740E+01  0.2353979E+05 -0.2073311E+01  0.3947686E+06 -0.2052669E+01
  0.2600000E+01  0.1387190E+06 -0.2209033E+01  0.2992894E+05 -0.1921549E+01  0.3566722E+06 -0.2209033E+01
  0.2700000E+01  0.1264693E+06 -0.2378429E+01  0.2317112E+05 -0.2160783E+01  0.3218612E+06 -0.2378543E+01
  0.2800000E+01  0.1152597E+06 -0.2560323E+01  0.1830196E+05 -0.2374668E+01  0.2900308E+06 -0.2560649E+01
  0.2900000E+01  0.1051217E+06 -0.2754835E+01  0.1423703E+05 -0.2587983E+01  0.2612158E+06 -0.2755601E+01
  0.3000000E+01  0.9588285E+05 -0.2964618E+01  0.1075849E+05 -0.2801129E+01  0.2346091E+06 -0.2966196E+01
  0.3100000E+01  0.8658191E+05  0.3051142E+01  0.7736070E+04 -0.3011847E+01  0.2021157E+06  0.3045369E+01
  0.3200000E+01  0.8061017E+05  0.2916770E+01  0.5060835E+04  0.3066477E+01  0.1971099E+06  0.2916357E+01
