VARIABLES="w (rad/s)"
"abs(F   1   1)" "angle(F   1   1)"
"abs(F   1   2)" "angle(F   1   2)"
"abs(F   1   3)" "angle(F   1   3)"
Zone t="FKforce - beta =   0.000",I=    32,F=POINT
  0.1000000E+00  0.1325998E+04 -0.1570800E+01  0.4662805E+06 -0.8235050E-11  0.3739559E+04 -0.1570796E+01
  0.2000000E+00  0.5279536E+04 -0.1570797E+01  0.4623125E+06  0.2704247E-10  0.1488834E+05 -0.1570795E+01
  0.3000000E+00  0.1178727E+05 -0.1570796E+01  0.4557472E+06 -0.1340867E-09  0.3323652E+05 -0.1570797E+01
  0.4000000E+00  0.2072724E+05 -0.1570796E+01  0.4466496E+06  0.2096640E-09  0.5843459E+05 -0.1570796E+01
  0.5000000E+00  0.3192914E+05 -0.1570796E+01  0.4351157E+06  0.6235934E-09  0.8999346E+05 -0.1570796E+01
  0.6000001E+00  0.4517479E+05 -0.1570796E+01  0.4212665E+06  0.5547083E-09  0.1272852E+06 -0.1570796E+01
  0.7000000E+00  0.6019940E+05 -0.1570796E+01  0.4052502E+06  0.1196725E-08  0.1695455E+06 -0.1570796E+01
  0.8000001E+00  0.7669236E+05 -0.1570796E+01  0.3872382E+06 -0.4617672E-09  0.2158759E+06 -0.1570796E+01
  0.9000000E+00  0.9429955E+05 -0.1570796E+01  0.3674275E+06 -0.6448304E-10  0.2652507E+06 -0.1570796E+01
  0.1000000E+01  0.1126264E+06 -0.1570796E+01  0.3460403E+06 -0.9783670E-10  0.3165254E+06 -0.1570796E+01
  0.1100000E+01  0.1312404E+06 -0.1570796E+01  0.3233158E+06  0.3266204E-08  0.3684490E+06 -0.1570796E+01
  0.1200000E+01  0.1496777E+06 -0.1570796E+01  0.2995199E+06  0.3537037E-08  0.4196801E+06 -0.1570796E+01
  0.1300000E+01  0.1674486E+06 -0.1570796E+01  0.2749311E+06  0.2602883E-08  0.4688088E+06 -0.1570796E+01
  0.1400000E+01  0.1840465E+06 -0.1570796E+01  0.2498458E+06  0.9426448E-08  0.5143880E+06 -0.1570796E+01
  0.1500000E+01  0.1989575E+06 -0.1570796E+01  0.2245702E+06  0.4529332E-08  0.5549634E+06 -0.1570796E+01
  0.1600000E+01  0.2116747E+06 -0.1570796E+01  0.1994182E+06 -0.4287017E-08  0.5891122E+06 -0.1570796E+01
  0.1700000E+01  0.2217098E+06 -0.1570796E+01  0.1747050E+06 -0.2500458E-08  0.6155007E+06 -0.1570796E+01
  0.1800000E+01  0.2286148E+06 -0.1570796E+01  0.1507412E+06  0.6241948E-08  0.6329162E+06 -0.1570796E+01
  0.1900000E+01  0.2319967E+06 -0.1570796E+01  0.1278254E+06  0.8506666E-08  0.6403436E+06 -0.1570796E+01
  0.2000000E+01  0.2315403E+06 -0.1570796E+01  0.1062367E+06  0.1117846E-07  0.6370098E+06 -0.1570796E+01
  0.2100000E+01  0.2270289E+06 -0.1570796E+01  0.8622592E+05 -0.3837157E-07  0.6224411E+06 -0.1570796E+01
  0.2200000E+01  0.2183654E+06 -0.1570796E+01  0.6800756E+05 -0.3824221E-07  0.5965244E+06 -0.1570796E+01
  0.2300000E+01  0.2055915E+06 -0.1570796E+01  0.5175083E+05 -0.4880016E-08  0.5595438E+06 -0.1570796E+01
  0.2400000E+01  0.1889031E+06 -0.1570796E+01  0.3757283E+05  0.1644200E-07  0.5122156E+06 -0.1570796E+01
  0.2500000E+01  0.1686630E+06 -0.1570796E+01  0.2553214E+05 -0.1408109E-07  0.4557088E+06 -0.1570796E+01
  0.2600000E+01  0.1454037E+06 -0.1570796E+01  0.1562488E+05 -0.6133319E-07  0.3916334E+06 -0.1570796E+01
  0.2700000E+01  0.1198227E+06 -0.1570796E+01  0.7783218E+04 -0.1731668E-06  0.3220152E+06 -0.1570796E+01
  0.2800000E+01  0.9276838E+05 -0.1570796E+01  0.1877512E+04 -0.8245942E-06  0.2492310E+06 -0.1570796E+01
  0.2900000E+01  0.6521118E+05 -0.1570796E+01  0.2278517E+04 -0.3141593E+01  0.1759248E+06 -0.1570796E+01
  0.3000000E+01  0.3820610E+05 -0.1570796E+01  0.4918353E+04 -0.3141593E+01  0.1048865E+06 -0.1570796E+01
  0.3100000E+01  0.1283997E+05 -0.1570796E+01  0.6310059E+04 -0.3141593E+01  0.3890734E+05 -0.1570796E+01
  0.3200000E+01  0.9829609E+04  0.1570796E+01  0.6740412E+04  0.3141593E+01  0.1938306E+05  0.1570796E+01
