 VARIABLES="Time (s)"
"AddedMass    1" "IRF    1"
"AddedMass    2" "IRF    2"
"AddedMass    3" "IRF    3"
Zone t="DoF    1",I=   160,F=POINT
  0.0000000E+00  0.4282066E+05  0.1106441E+06 -0.1130732E-02 -0.1427541E-01  0.1197997E+06  0.2920129E+06
  0.1000000E+00  0.4282066E+05  0.1078774E+06 -0.1130732E-02 -0.1407305E-01  0.1197997E+06  0.2848451E+06
  0.2000000E+00  0.4282066E+05  0.9974473E+05 -0.1130732E-02 -0.1347489E-01  0.1197997E+06  0.2637686E+06
  0.3000000E+00  0.4282066E+05  0.8673703E+05 -0.1130732E-02 -0.1250719E-01  0.1197997E+06  0.2300355E+06
  0.4000000E+00  0.4282066E+05  0.6963491E+05 -0.1130732E-02 -0.1121182E-01  0.1197997E+06  0.1856374E+06
  0.5000000E+00  0.4282066E+05  0.4945506E+05 -0.1130732E-02 -0.9643621E-02  0.1197997E+06  0.1331711E+06
  0.6000000E+00  0.4282066E+05  0.2738108E+05 -0.1130732E-02 -0.7866967E-02  0.1197997E+06  0.7566388E+05
  0.7000000E+00  0.4282066E+05  0.4683686E+04 -0.1130732E-02 -0.5951890E-02  0.1197997E+06  0.1637235E+05
  0.8000000E+00  0.4282066E+05 -0.1736361E+05 -0.1130732E-02 -0.3969972E-02  0.1197997E+06 -0.4143100E+05
  0.9000000E+00  0.4282066E+05 -0.3756727E+05 -0.1130732E-02 -0.1990407E-02  0.1197997E+06 -0.9466734E+05
  0.1000000E+01  0.4282066E+05 -0.5488907E+05 -0.1130732E-02 -0.7646102E-04  0.1197997E+06 -0.1406432E+06
  0.1100000E+01  0.4282066E+05 -0.6850850E+05 -0.1130732E-02  0.1717389E-02  0.1197997E+06 -0.1772100E+06
  0.1200000E+01  0.4282066E+05 -0.7786820E+05 -0.1130732E-02  0.3347463E-02  0.1197997E+06 -0.2028819E+06
  0.1300000E+01  0.4282066E+05 -0.8269948E+05 -0.1130732E-02  0.4781940E-02  0.1197997E+06 -0.2169031E+06
  0.1400000E+01  0.4282066E+05 -0.8302683E+05 -0.1130732E-02  0.6000960E-02  0.1197997E+06 -0.2192628E+06
  0.1500000E+01  0.4282066E+05 -0.7915149E+05 -0.1130732E-02  0.6995840E-02  0.1197997E+06 -0.2106585E+06
  0.1600000E+01  0.4282066E+05 -0.7161648E+05 -0.1130732E-02  0.7767531E-02  0.1197997E+06 -0.1924105E+06
  0.1700000E+01  0.4282066E+05 -0.6115601E+05 -0.1130732E-02  0.8324559E-02  0.1197997E+06 -0.1663385E+06
  0.1800000E+01  0.4282066E+05 -0.4863389E+05 -0.1130732E-02  0.8680669E-02  0.1197997E+06 -0.1346080E+06
  0.1900000E+01  0.4282066E+05 -0.3497607E+05 -0.1130732E-02  0.8852440E-02  0.1197997E+06 -0.9956255E+05
  0.2000000E+01  0.4282066E+05 -0.2110247E+05 -0.1130732E-02  0.8857113E-02  0.1197997E+06 -0.6355166E+05
  0.2100000E+01  0.4282066E+05 -0.7863511E+04 -0.1130732E-02  0.8710846E-02  0.1197997E+06 -0.2877014E+05
  0.2200000E+01  0.4282066E+05  0.4014228E+04 -0.1130732E-02  0.8427529E-02  0.1197997E+06  0.2881056E+04
  0.2300000E+01  0.4282066E+05  0.1396962E+05 -0.1130732E-02  0.8018287E-02  0.1197997E+06  0.2990334E+05
  0.2400000E+01  0.4282066E+05  0.2163299E+05 -0.1130732E-02  0.7491619E-02  0.1197997E+06  0.5127048E+05
  0.2500000E+01  0.4282066E+05  0.2683583E+05 -0.1130732E-02  0.6854167E-02  0.1197997E+06  0.6645848E+05
  0.2600000E+01  0.4282066E+05  0.2960443E+05 -0.1130732E-02  0.6111901E-02  0.1197997E+06  0.7543498E+05
  0.2700000E+01  0.4282066E+05  0.3013860E+05 -0.1130732E-02  0.5271625E-02  0.1197997E+06  0.7861155E+05
  0.2800000E+01  0.4282066E+05  0.2877859E+05 -0.1130732E-02  0.4342528E-02  0.1197997E+06  0.7676564E+05
  0.2900000E+01  0.4282066E+05  0.2596345E+05 -0.1130732E-02  0.3337553E-02  0.1197997E+06  0.7094016E+05
  0.3000000E+01  0.4282066E+05  0.2218493E+05 -0.1130732E-02  0.2274432E-02  0.1197997E+06  0.6233082E+05
  0.3100000E+01  0.4282066E+05  0.1794102E+05 -0.1130732E-02  0.1176144E-02  0.1197997E+06  0.5217122E+05
  0.3200000E+01  0.4282066E+05  0.1369312E+05 -0.1130732E-02  0.7076620E-04  0.1197997E+06  0.4162558E+05
  0.3300000E+01  0.4282066E+05  0.9830207E+04 -0.1130732E-02 -0.1009409E-02  0.1197997E+06  0.3169728E+05
  0.3400000E+01  0.4282066E+05  0.6642472E+04 -0.1130732E-02 -0.2029359E-02  0.1197997E+06  0.2316037E+05
  0.3500000E+01  0.4282066E+05  0.4306318E+04 -0.1130732E-02 -0.2953377E-02  0.1197997E+06  0.1651781E+05
  0.3600000E+01  0.4282066E+05  0.2880810E+04 -0.1130732E-02 -0.3747508E-02  0.1197997E+06  0.1198796E+05
  0.3700000E+01  0.4282066E+05  0.2315387E+04 -0.1130732E-02 -0.4382092E-02  0.1197997E+06  0.9518766E+04
  0.3800000E+01  0.4282066E+05  0.2467163E+04 -0.1130732E-02 -0.4834226E-02  0.1197997E+06  0.8825810E+04
  0.3900000E+01  0.4282066E+05  0.3125574E+04 -0.1130732E-02 -0.5089889E-02  0.1197997E+06  0.9449023E+04
  0.4000000E+01  0.4282066E+05  0.4041453E+04 -0.1130732E-02 -0.5145462E-02  0.1197997E+06  0.1082152E+05
  0.4100000E+01  0.4282066E+05  0.4957733E+04 -0.1130732E-02 -0.5008533E-02  0.1197997E+06  0.1234297E+05
  0.4200000E+01  0.4282066E+05  0.5638438E+04 -0.1130732E-02 -0.4697789E-02  0.1197997E+06  0.1345032E+05
  0.4300000E+01  0.4282066E+05  0.5893474E+04 -0.1130732E-02 -0.4242031E-02  0.1197997E+06  0.1367905E+05
  0.4400000E+01  0.4282066E+05  0.5597094E+04 -0.1130732E-02 -0.3678302E-02  0.1197997E+06  0.1270994E+05
  0.4500000E+01  0.4282066E+05  0.4698535E+04 -0.1130732E-02 -0.3049295E-02  0.1197997E+06  0.1039752E+05
  0.4600000E+01  0.4282066E+05  0.3224181E+04 -0.1130732E-02 -0.2400222E-02  0.1197997E+06  0.6778261E+04
  0.4700000E+01  0.4282066E+05  0.1271737E+04 -0.1130732E-02 -0.1775370E-02  0.1197997E+06  0.2059431E+04
  0.4800000E+01  0.4282066E+05 -0.1002852E+04 -0.1130732E-02 -0.1214699E-02  0.1197997E+06 -0.3409669E+04
  0.4900000E+01  0.4282066E+05 -0.3403873E+04 -0.1130732E-02 -0.7506782E-03  0.1197997E+06 -0.9179966E+04
  0.5000000E+01  0.4282066E+05 -0.5717854E+04 -0.1130732E-02 -0.4057308E-03  0.1197997E+06 -0.1475407E+05
  0.5100000E+01  0.4282066E+05 -0.7736344E+04 -0.1130732E-02 -0.1904418E-03  0.1197997E+06 -0.1964004E+05
  0.5200000E+01  0.4282066E+05 -0.9277586E+04 -0.1130732E-02 -0.1027322E-03  0.1197997E+06 -0.2340354E+05
  0.5300000E+01  0.4282066E+05 -0.1020466E+05 -0.1130732E-02 -0.1280723E-03  0.1197997E+06 -0.2571178E+05
  0.5400000E+01  0.4282066E+05 -0.1043872E+05 -0.1130732E-02 -0.2407208E-03  0.1197997E+06 -0.2636649E+05
  0.5500000E+01  0.4282066E+05 -0.9965676E+04 -0.1130732E-02 -0.4059232E-03  0.1197997E+06 -0.2532144E+05
  0.5600000E+01  0.4282066E+05 -0.8836550E+04 -0.1130732E-02 -0.5828548E-03  0.1197997E+06 -0.2268504E+05
  0.5700000E+01  0.4282066E+05 -0.7161124E+04 -0.1130732E-02 -0.7281085E-03  0.1197997E+06 -0.1870688E+05
  0.5800000E+01  0.4282066E+05 -0.5096129E+04 -0.1130732E-02 -0.7994123E-03  0.1197997E+06 -0.1375106E+05
  0.5900000E+01  0.4282066E+05 -0.2829081E+04 -0.1130732E-02 -0.7592872E-03  0.1197997E+06 -0.8258824E+04
  0.6000000E+01  0.4282066E+05 -0.5594834E+03 -0.1130732E-02 -0.5783630E-03  0.1197997E+06 -0.2704486E+04
  0.6100000E+01  0.4282066E+05  0.1520341E+04 -0.1130732E-02 -0.2380157E-03  0.1197997E+06  0.2450006E+04
  0.6200000E+01  0.4282066E+05  0.3243362E+04 -0.1130732E-02  0.2677810E-03  0.1197997E+06  0.6798463E+04
  0.6300000E+01  0.4282066E+05  0.4482708E+04 -0.1130732E-02  0.9316095E-03  0.1197997E+06  0.1002646E+05
  0.6400000E+01  0.4282066E+05  0.5162382E+04 -0.1130732E-02  0.1732833E-02  0.1197997E+06  0.1193795E+05
  0.6500000E+01  0.4282066E+05  0.5262530E+04 -0.1130732E-02  0.2638770E-02  0.1197997E+06  0.1246906E+05
  0.6600000E+01  0.4282066E+05  0.4819048E+04 -0.1130732E-02  0.3606828E-02  0.1197997E+06  0.1168849E+05
  0.6700000E+01  0.4282066E+05  0.3917914E+04 -0.1130732E-02  0.4587332E-02  0.1197997E+06  0.9785479E+04
  0.6800000E+01  0.4282066E+05  0.2684832E+04 -0.1130732E-02  0.5526825E-02  0.1197997E+06  0.7046305E+04
  0.6900000E+01  0.4282066E+05  0.1271206E+04 -0.1130732E-02  0.6371633E-02  0.1197997E+06  0.3821973E+04
  0.7000000E+01  0.4282066E+05 -0.1617477E+03 -0.1130732E-02  0.7071319E-02  0.1197997E+06  0.4910191E+03
  0.7100000E+01  0.4282066E+05 -0.1459213E+04 -0.1130732E-02  0.7581856E-02  0.1197997E+06 -0.2578710E+04
  0.7200000E+01  0.4282066E+05 -0.2488014E+04 -0.1130732E-02  0.7868247E-02  0.1197997E+06 -0.5066453E+04
  0.7300000E+01  0.4282066E+05 -0.3148830E+04 -0.1130732E-02  0.7906433E-02  0.1197997E+06 -0.6728006E+04
  0.7400000E+01  0.4282066E+05 -0.3384976E+04 -0.1130732E-02  0.7684407E-02  0.1197997E+06 -0.7417386E+04
  0.7500000E+01  0.4282066E+05 -0.3186354E+04 -0.1130732E-02  0.7202452E-02  0.1197997E+06 -0.7097284E+04
  0.7600000E+01  0.4282066E+05 -0.2588747E+04 -0.1130732E-02  0.6472620E-02  0.1197997E+06 -0.5838470E+04
  0.7700000E+01  0.4282066E+05 -0.1668542E+04 -0.1130732E-02  0.5517462E-02  0.1197997E+06 -0.3808512E+04
  0.7800000E+01  0.4282066E+05 -0.5335899E+03 -0.1130732E-02  0.4368285E-02  0.1197997E+06 -0.1251103E+04
  0.7900000E+01  0.4282066E+05  0.6889321E+03 -0.1130732E-02  0.3062940E-02  0.1197997E+06  0.1541720E+04
  0.8000000E+01  0.4282066E+05  0.1865906E+04 -0.1130732E-02  0.1643566E-02  0.1197997E+06  0.4260757E+04
  0.8100000E+01  0.4282066E+05  0.2872321E+04 -0.1130732E-02  0.1542616E-03  0.1197997E+06  0.6612559E+04
  0.8200000E+01  0.4282066E+05  0.3603546E+04 -0.1130732E-02 -0.1360948E-02  0.1197997E+06  0.8348386E+04
  0.8300000E+01  0.4282066E+05  0.3985622E+04 -0.1130732E-02 -0.2859931E-02  0.1197997E+06  0.9288993E+04
  0.8400001E+01  0.4282066E+05  0.3981898E+04 -0.1130732E-02 -0.4303714E-02  0.1197997E+06  0.9340766E+04
  0.8500000E+01  0.4282066E+05  0.3595897E+04 -0.1130732E-02 -0.5657411E-02  0.1197997E+06  0.8503297E+04
  0.8600000E+01  0.4282066E+05  0.2869929E+04 -0.1130732E-02 -0.6890724E-02  0.1197997E+06  0.6866987E+04
  0.8700000E+01  0.4282066E+05  0.1879914E+04 -0.1130732E-02 -0.7977962E-02  0.1197997E+06  0.4601669E+04
  0.8800000E+01  0.4282066E+05  0.7268892E+03 -0.1130732E-02 -0.8897967E-02  0.1197997E+06  0.1937450E+04
  0.8900001E+01  0.4282066E+05 -0.4735938E+03 -0.1130732E-02 -0.9633736E-02  0.1197997E+06 -0.8595871E+03
  0.9000000E+01  0.4282066E+05 -0.1603707E+04 -0.1130732E-02 -0.1017207E-01  0.1197997E+06 -0.3515782E+04
  0.9100000E+01  0.4282066E+05 -0.2554925E+04 -0.1130732E-02 -0.1050332E-01  0.1197997E+06 -0.5776829E+04
  0.9200000E+01  0.4282066E+05 -0.3238829E+04 -0.1130732E-02 -0.1062124E-01  0.1197997E+06 -0.7433186E+04
  0.9300000E+01  0.4282066E+05 -0.3595486E+04 -0.1130732E-02 -0.1052301E-01  0.1197997E+06 -0.8340074E+04
  0.9400001E+01  0.4282066E+05 -0.3598695E+04 -0.1130732E-02 -0.1020951E-01  0.1197997E+06 -0.8430102E+04
  0.9500000E+01  0.4282066E+05 -0.3257865E+04 -0.1130732E-02 -0.9685746E-02  0.1197997E+06 -0.7718353E+04
  0.9600000E+01  0.4282066E+05 -0.2616219E+04 -0.1130732E-02 -0.8961287E-02  0.1197997E+06 -0.6298745E+04
  0.9700000E+01  0.4282066E+05 -0.1745606E+04 -0.1130732E-02 -0.8050813E-02  0.1197997E+06 -0.4332549E+04
  0.9800000E+01  0.4282066E+05 -0.7386981E+03 -0.1130732E-02 -0.6974417E-02  0.1197997E+06 -0.2030728E+04
  0.9900001E+01  0.4282066E+05  0.3008062E+03 -0.1130732E-02 -0.5757750E-02  0.1197997E+06  0.3685457E+03
  0.1000000E+02  0.4282066E+05  0.1268716E+04 -0.1130732E-02 -0.4431794E-02  0.1197997E+06  0.2624110E+04
  0.1010000E+02  0.4282066E+05  0.2070926E+04 -0.1130732E-02 -0.3032195E-02  0.1197997E+06  0.4516460E+04
  0.1020000E+02  0.4282066E+05  0.2632331E+04 -0.1130732E-02 -0.1598262E-02  0.1197997E+06  0.5868487E+04
  0.1030000E+02  0.4282066E+05  0.2904059E+04 -0.1130732E-02 -0.1714079E-03  0.1197997E+06  0.6562635E+04
  0.1040000E+02  0.4282066E+05  0.2867508E+04 -0.1130732E-02  0.1206595E-02  0.1197997E+06  0.6550570E+04
  0.1050000E+02  0.4282066E+05  0.2535629E+04 -0.1130732E-02  0.2495704E-02  0.1197997E+06  0.5856672E+04
  0.1060000E+02  0.4282066E+05  0.1950596E+04 -0.1130732E-02  0.3659793E-02  0.1197997E+06  0.4572995E+04
  0.1070000E+02  0.4282066E+05  0.1179064E+04 -0.1130732E-02  0.4668608E-02  0.1197997E+06  0.2848788E+04
  0.1080000E+02  0.4282066E+05  0.3046353E+03 -0.1130732E-02  0.5499656E-02  0.1197997E+06  0.8733770E+03
  0.1090000E+02  0.4282066E+05 -0.5807357E+03 -0.1130732E-02  0.6139432E-02  0.1197997E+06 -0.1143390E+04
  0.1100000E+02  0.4282066E+05 -0.1386349E+04 -0.1130732E-02  0.6584258E-02  0.1197997E+06 -0.2993276E+04
  0.1110000E+02  0.4282066E+05 -0.2031874E+04 -0.1130732E-02  0.6840350E-02  0.1197997E+06 -0.4490634E+04
  0.1120000E+02  0.4282066E+05 -0.2455092E+04 -0.1130732E-02  0.6923141E-02  0.1197997E+06 -0.5490352E+04
  0.1130000E+02  0.4282066E+05 -0.2617782E+04 -0.1130732E-02  0.6855985E-02  0.1197997E+06 -0.5901619E+04
  0.1140000E+02  0.4282066E+05 -0.2509000E+04 -0.1130732E-02  0.6668202E-02  0.1197997E+06 -0.5695744E+04
  0.1150000E+02  0.4282066E+05 -0.2145593E+04 -0.1130732E-02  0.6392642E-02  0.1197997E+06 -0.4907601E+04
  0.1160000E+02  0.4282066E+05 -0.1569729E+04 -0.1130732E-02  0.6063013E-02  0.1197997E+06 -0.3630272E+04
  0.1170000E+02  0.4282066E+05 -0.8442297E+03 -0.1130732E-02  0.5711135E-02  0.1197997E+06 -0.2004557E+04
  0.1180000E+02  0.4282066E+05 -0.4559369E+02 -0.1130732E-02  0.5364334E-02  0.1197997E+06 -0.2032073E+03
  0.1190000E+02  0.4282066E+05  0.7438672E+03 -0.1130732E-02  0.5043347E-02  0.1197997E+06  0.1586972E+04
  0.1200000E+02  0.4282066E+05  0.1444540E+04 -0.1130732E-02  0.4760703E-02  0.1197997E+06  0.3184553E+04
  0.1210000E+02  0.4282066E+05  0.1987565E+04 -0.1130732E-02  0.4519925E-02  0.1197997E+06  0.4431934E+04
  0.1220000E+02  0.4282066E+05  0.2321309E+04 -0.1130732E-02  0.4315587E-02  0.1197997E+06  0.5210191E+04
  0.1230000E+02  0.4282066E+05  0.2416454E+04 -0.1130732E-02  0.4134112E-02  0.1197997E+06  0.5450800E+04
  0.1240000E+02  0.4282066E+05  0.2268294E+04 -0.1130732E-02  0.3955455E-02  0.1197997E+06  0.5141046E+04
  0.1250000E+02  0.4282066E+05  0.1896844E+04 -0.1130732E-02  0.3755352E-02  0.1197997E+06  0.4324424E+04
  0.1260000E+02  0.4282066E+05  0.1343943E+04 -0.1130732E-02  0.3508063E-02  0.1197997E+06  0.3094069E+04
  0.1270000E+02  0.4282066E+05  0.6690987E+03 -0.1130732E-02  0.3189253E-02  0.1197997E+06  0.1583560E+04
  0.1280000E+02  0.4282066E+05 -0.5741841E+02 -0.1130732E-02  0.2778883E-02  0.1197997E+06 -0.4884440E+02
  0.1290000E+02  0.4282066E+05 -0.7614678E+03 -0.1130732E-02  0.2263736E-02  0.1197997E+06 -0.1635746E+04
  0.1300000E+02  0.4282066E+05 -0.1372916E+04 -0.1130732E-02  0.1639405E-02  0.1197997E+06 -0.3018562E+04
  0.1310000E+02  0.4282066E+05 -0.1832307E+04 -0.1130732E-02  0.9114561E-03  0.1197997E+06 -0.4062570E+04
  0.1320000E+02  0.4282066E+05 -0.2096904E+04 -0.1130732E-02  0.9585480E-04  0.1197997E+06 -0.4670705E+04
  0.1330000E+02  0.4282066E+05 -0.2144449E+04 -0.1130732E-02 -0.7817057E-03  0.1197997E+06 -0.4792075E+04
  0.1340000E+02  0.4282066E+05 -0.1975021E+04 -0.1130732E-02 -0.1687265E-02  0.1197997E+06 -0.4426157E+04
  0.1350000E+02  0.4282066E+05 -0.1610562E+04 -0.1130732E-02 -0.2580876E-02  0.1197997E+06 -0.3621763E+04
  0.1360000E+02  0.4282066E+05 -0.1092190E+04 -0.1130732E-02 -0.3419535E-02  0.1197997E+06 -0.2470949E+04
  0.1370000E+02  0.4282066E+05 -0.4756008E+03 -0.1130732E-02 -0.4160400E-02  0.1197997E+06 -0.1098584E+04
  0.1380000E+02  0.4282066E+05  0.1747773E+03 -0.1130732E-02 -0.4764203E-02  0.1197997E+06  0.3508073E+03
  0.1390000E+02  0.4282066E+05  0.7924873E+03 -0.1130732E-02 -0.5198357E-02  0.1197997E+06  0.1728239E+04
  0.1400000E+02  0.4282066E+05  0.1315911E+04 -0.1130732E-02 -0.5439710E-02  0.1197997E+06  0.2895695E+04
  0.1410000E+02  0.4282066E+05  0.1694259E+04 -0.1130732E-02 -0.5476540E-02  0.1197997E+06  0.3739644E+04
  0.1420000E+02  0.4282066E+05  0.1892381E+04 -0.1130732E-02 -0.5309627E-02  0.1197997E+06  0.4181751E+04
  0.1430000E+02  0.4282066E+05  0.1894191E+04 -0.1130732E-02 -0.4952462E-02  0.1197997E+06  0.4186519E+04
  0.1440000E+02  0.4282066E+05  0.1703727E+04 -0.1130732E-02 -0.4430352E-02  0.1197997E+06  0.3763602E+04
  0.1450000E+02  0.4282066E+05  0.1344401E+04 -0.1130732E-02 -0.3778635E-02  0.1197997E+06  0.2965967E+04
  0.1460000E+02  0.4282066E+05  0.8560908E+03 -0.1130732E-02 -0.3040081E-02  0.1197997E+06  0.1883179E+04
  0.1470000E+02  0.4282066E+05  0.2910942E+03 -0.1130732E-02 -0.2261768E-02  0.1197997E+06  0.6323804E+03
  0.1480000E+02  0.4282066E+05 -0.2919868E+03 -0.1130732E-02 -0.1491537E-02  0.1197997E+06 -0.6557435E+03
  0.1490000E+02  0.4282066E+05 -0.8335740E+03 -0.1130732E-02 -0.7745269E-03  0.1197997E+06 -0.1848670E+04
  0.1500000E+02  0.4282066E+05 -0.1279834E+04 -0.1130732E-02 -0.1498917E-03  0.1197997E+06 -0.2827308E+04
  0.1510000E+02  0.4282066E+05 -0.1587524E+04 -0.1130732E-02  0.3519400E-03  0.1197997E+06 -0.3496570E+04
  0.1520000E+02  0.4282066E+05 -0.1728396E+04 -0.1130732E-02  0.7112845E-03  0.1197997E+06 -0.3795209E+04
  0.1530000E+02  0.4282066E+05 -0.1691616E+04 -0.1130732E-02  0.9202855E-03  0.1197997E+06 -0.3700942E+04
  0.1540000E+02  0.4282066E+05 -0.1484571E+04 -0.1130732E-02  0.9830775E-03  0.1197997E+06 -0.3232077E+04
  0.1550000E+02  0.4282066E+05 -0.1131672E+04 -0.1130732E-02  0.9149413E-03  0.1197997E+06 -0.2444524E+04
  0.1560000E+02  0.4282066E+05 -0.6714792E+03 -0.1130732E-02  0.7406510E-03  0.1197997E+06 -0.1425197E+04
  0.1570000E+02  0.4282066E+05 -0.1528748E+03 -0.1130732E-02  0.4920201E-03  0.1197997E+06 -0.2833968E+03
  0.1580000E+02  0.4282066E+05  0.3706692E+03 -0.1130732E-02  0.2049776E-03  0.1197997E+06  0.8623130E+03
  0.1590000E+02  0.4282066E+05  0.8461488E+03 -0.1130732E-02 -0.8357184E-04  0.1197997E+06  0.1895229E+04
Zone t="DoF    2",I=   160,F=POINT
  0.0000000E+00 -0.3523349E-03  0.1323373E-02  0.6625684E+05  0.4076041E+05 -0.4394597E-02  0.2564759E-02
  0.1000000E+00 -0.3523349E-03  0.1290289E-02  0.6625684E+05  0.4027904E+05 -0.4394597E-02  0.2475130E-02
  0.2000000E+00 -0.3523349E-03  0.1193176E-02  0.6625684E+05  0.3885222E+05 -0.4394597E-02  0.2212705E-02
  0.3000000E+00 -0.3523349E-03  0.1038298E-02  0.6625684E+05  0.3653094E+05 -0.4394597E-02  0.1796384E-02
  0.4000000E+00 -0.3523349E-03  0.8355926E-03  0.6625684E+05  0.3339758E+05 -0.4394597E-02  0.1256081E-02
  0.5000000E+00 -0.3523349E-03  0.5979689E-03  0.6625684E+05  0.2956204E+05 -0.4394597E-02  0.6304685E-03
  0.6000000E+00 -0.3523349E-03  0.3403857E-03  0.6625684E+05  0.2515671E+05 -0.4394597E-02 -0.3592801E-04
  0.7000000E+00 -0.3523349E-03  0.7879800E-04  0.6625684E+05  0.2033052E+05 -0.4394597E-02 -0.6960598E-03
  0.8000000E+00 -0.3523349E-03 -0.1709614E-03  0.6625684E+05  0.1524228E+05 -0.4394597E-02 -0.1303860E-02
  0.9000000E+00 -0.3523349E-03 -0.3942763E-03  0.6625684E+05  0.1005377E+05 -0.4394597E-02 -0.1817646E-02
  0.1000000E+01 -0.3523349E-03 -0.5787415E-03  0.6625684E+05  0.4923017E+04 -0.4394597E-02 -0.2203166E-02
  0.1100000E+01 -0.3523349E-03 -0.7149799E-03  0.6625684E+05 -0.2131284E+01 -0.4394597E-02 -0.2436050E-02
  0.1200000E+01 -0.3523349E-03 -0.7972264E-03  0.6625684E+05 -0.4589591E+04 -0.4394597E-02 -0.2503488E-02
  0.1300000E+01 -0.3523349E-03 -0.8236401E-03  0.6625684E+05 -0.8727656E+04 -0.4394597E-02 -0.2405017E-02
  0.1400000E+01 -0.3523349E-03 -0.7963170E-03  0.6625684E+05 -0.1232840E+05 -0.4394597E-02 -0.2152340E-02
  0.1500000E+01 -0.3523349E-03 -0.7210186E-03  0.6625684E+05 -0.1532978E+05 -0.4394597E-02 -0.1768247E-02
  0.1600000E+01 -0.3523349E-03 -0.6066313E-03  0.6625684E+05 -0.1769634E+05 -0.4394597E-02 -0.1284683E-02
  0.1700000E+01 -0.3523349E-03 -0.4644044E-03  0.6625684E+05 -0.1941864E+05 -0.4394597E-02 -0.7401538E-03
  0.1800000E+01 -0.3523349E-03 -0.3070331E-03  0.6625684E+05 -0.2051149E+05 -0.4394597E-02 -0.1766731E-03
  0.1900000E+01 -0.3523349E-03 -0.1476533E-03  0.6625684E+05 -0.2101110E+05 -0.4394597E-02  0.3635158E-03
  0.2000000E+01 -0.3523349E-03  0.1169297E-05  0.6625684E+05 -0.2097149E+05 -0.4394597E-02  0.8411676E-03
  0.2100000E+01 -0.3523349E-03  0.1283813E-03  0.6625684E+05 -0.2046032E+05 -0.4394597E-02  0.1222978E-02
  0.2200000E+01 -0.3523349E-03  0.2252351E-03  0.6625684E+05 -0.1955446E+05 -0.4394597E-02  0.1484001E-02
  0.2300000E+01 -0.3523349E-03  0.2858892E-03  0.6625684E+05 -0.1833553E+05 -0.4394597E-02  0.1609375E-02
  0.2400000E+01 -0.3523349E-03  0.3077527E-03  0.6625684E+05 -0.1688567E+05 -0.4394597E-02  0.1595216E-02
  0.2500000E+01 -0.3523349E-03  0.2915744E-03  0.6625684E+05 -0.1528386E+05 -0.4394597E-02  0.1448647E-02
  0.2600000E+01 -0.3523349E-03  0.2412533E-03  0.6625684E+05 -0.1360266E+05 -0.4394597E-02  0.1186943E-02
  0.2700000E+01 -0.3523349E-03  0.1634090E-03  0.6625684E+05 -0.1190591E+05 -0.4394597E-02  0.8359198E-03
  0.2800000E+01 -0.3523349E-03  0.6674236E-04  0.6625684E+05 -0.1024705E+05 -0.4394597E-02  0.4276712E-03
  0.2900000E+01 -0.3523349E-03 -0.3875856E-04  0.6625684E+05 -0.8668282E+04 -0.4394597E-02 -0.2132044E-05
  0.3000000E+01 -0.3523349E-03 -0.1426896E-03  0.6625684E+05 -0.7200574E+04 -0.4394597E-02 -0.4171495E-03
  0.3100000E+01 -0.3523349E-03 -0.2351182E-03  0.6625684E+05 -0.5864136E+04 -0.4394597E-02 -0.7832707E-03
  0.3200000E+01 -0.3523349E-03 -0.3074091E-03  0.6625684E+05 -0.4669580E+04 -0.4394597E-02 -0.1071259E-02
  0.3300000E+01 -0.3523349E-03 -0.3529160E-03  0.6625684E+05 -0.3619394E+04 -0.4394597E-02 -0.1258923E-02
  0.3400000E+01 -0.3523349E-03 -0.3674969E-03  0.6625684E+05 -0.2709634E+04 -0.4394597E-02 -0.1332680E-02
  0.3500000E+01 -0.3523349E-03 -0.3498050E-03  0.6625684E+05 -0.1931741E+04 -0.4394597E-02 -0.1288383E-02
  0.3600000E+01 -0.3523349E-03 -0.3013365E-03  0.6625684E+05 -0.1274221E+04 -0.4394597E-02 -0.1131358E-02
  0.3700000E+01 -0.3523349E-03 -0.2262480E-03  0.6625684E+05 -0.7242100E+03 -0.4394597E-02 -0.8757018E-03
  0.3800000E+01 -0.3523349E-03 -0.1309424E-03  0.6625684E+05 -0.2687347E+03 -0.4394597E-02 -0.5428789E-03
  0.3900000E+01 -0.3523349E-03 -0.2348872E-04  0.6625684E+05  0.1043487E+03 -0.4394597E-02 -0.1597885E-03
  0.4000000E+01 -0.3523349E-03  0.8709362E-04  0.6625684E+05  0.4057271E+03 -0.4394597E-02  0.2435435E-03
  0.4100000E+01 -0.3523349E-03  0.1916012E-03  0.6625684E+05  0.6443840E+03 -0.4394597E-02  0.6364149E-03
  0.4200000E+01 -0.3523349E-03  0.2814150E-03  0.6625684E+05  0.8276008E+03 -0.4394597E-02  0.9898760E-03
  0.4300000E+01 -0.3523349E-03  0.3491969E-03  0.6625684E+05  0.9611979E+03 -0.4394597E-02  0.1278895E-02
  0.4400000E+01 -0.3523349E-03  0.3894595E-03  0.6625684E+05  0.1049944E+04 -0.4394597E-02  0.1484128E-02
  0.4500000E+01 -0.3523349E-03  0.3989485E-03  0.6625684E+05  0.1098051E+04 -0.4394597E-02  0.1593087E-02
  0.4600000E+01 -0.3523349E-03  0.3768439E-03  0.6625684E+05  0.1109627E+04 -0.4394597E-02  0.1600754E-02
  0.4700000E+01 -0.3523349E-03  0.3247292E-03  0.6625684E+05  0.1089127E+04 -0.4394597E-02  0.1509487E-02
  0.4800000E+01 -0.3523349E-03  0.2463718E-03  0.6625684E+05  0.1041614E+04 -0.4394597E-02  0.1328366E-02
  0.4900000E+01 -0.3523349E-03  0.1473210E-03  0.6625684E+05  0.9729243E+03 -0.4394597E-02  0.1072008E-02
  0.5000000E+01 -0.3523349E-03  0.3437239E-04  0.6625684E+05  0.8896147E+03 -0.4394597E-02  0.7589987E-03
  0.5100000E+01 -0.3523349E-03 -0.8504452E-04  0.6625684E+05  0.7987820E+03 -0.4394597E-02  0.4101119E-03
  0.5200000E+01 -0.3523349E-03 -0.2034964E-03  0.6625684E+05  0.7077231E+03 -0.4394597E-02  0.4650926E-04
  0.5300000E+01 -0.3523349E-03 -0.3141331E-03  0.6625684E+05  0.6235171E+03 -0.4394597E-02 -0.3119288E-03
  0.5400000E+01 -0.3523349E-03 -0.4111878E-03  0.6625684E+05  0.5525181E+03 -0.4394597E-02 -0.6479911E-03
  0.5500000E+01 -0.3523349E-03 -0.4903293E-03  0.6625684E+05  0.4999181E+03 -0.4394597E-02 -0.9481052E-03
  0.5600000E+01 -0.3523349E-03 -0.5488496E-03  0.6625684E+05  0.4693049E+03 -0.4394597E-02 -0.1202819E-02
  0.5700000E+01 -0.3523349E-03 -0.5856730E-03  0.6625684E+05  0.4623674E+03 -0.4394597E-02 -0.1406797E-02
  0.5800000E+01 -0.3523349E-03 -0.6011919E-03  0.6625684E+05  0.4787366E+03 -0.4394597E-02 -0.1558331E-02
  0.5900000E+01 -0.3523349E-03 -0.5969645E-03  0.6625684E+05  0.5159702E+03 -0.4394597E-02 -0.1658505E-02
  0.6000000E+01 -0.3523349E-03 -0.5752941E-03  0.6625684E+05  0.5697529E+03 -0.4394597E-02 -0.1710058E-02
  0.6100000E+01 -0.3523349E-03 -0.5387711E-03  0.6625684E+05  0.6342086E+03 -0.4394597E-02 -0.1716192E-02
  0.6200000E+01 -0.3523349E-03 -0.4898054E-03  0.6625684E+05  0.7023793E+03 -0.4394597E-02 -0.1679406E-02
  0.6300000E+01 -0.3523349E-03 -0.4302396E-03  0.6625684E+05  0.7668019E+03 -0.4394597E-02 -0.1600593E-02
  0.6400000E+01 -0.3523349E-03 -0.3610553E-03  0.6625684E+05  0.8201013E+03 -0.4394597E-02 -0.1478439E-02
  0.6500000E+01 -0.3523349E-03 -0.2822474E-03  0.6625684E+05  0.8556558E+03 -0.4394597E-02 -0.1309326E-02
  0.6600000E+01 -0.3523349E-03 -0.1928728E-03  0.6625684E+05  0.8681027E+03 -0.4394597E-02 -0.1087705E-02
  0.6700000E+01 -0.3523349E-03 -0.9126608E-04  0.6625684E+05  0.8538433E+03 -0.4394597E-02 -0.8069468E-03
  0.6800000E+01 -0.3523349E-03  0.2456013E-04  0.6625684E+05  0.8113506E+03 -0.4394597E-02 -0.4606452E-03
  0.6900000E+01 -0.3523349E-03  0.1564122E-03  0.6625684E+05  0.7413192E+03 -0.4394597E-02 -0.4417284E-04
  0.7000000E+01 -0.3523349E-03  0.3053261E-03  0.6625684E+05  0.6466443E+03 -0.4394597E-02  0.4436128E-03
  0.7100000E+01 -0.3523349E-03  0.4709827E-03  0.6625684E+05  0.5322198E+03 -0.4394597E-02  0.9987541E-03
  0.7200000E+01 -0.3523349E-03  0.6511815E-03  0.6625684E+05  0.4045749E+03 -0.4394597E-02  0.1610834E-02
  0.7300000E+01 -0.3523349E-03  0.8414569E-03  0.6625684E+05  0.2713862E+03 -0.4394597E-02  0.2262107E-02
  0.7400000E+01 -0.3523349E-03  0.1034891E-02  0.6625684E+05  0.1408670E+03 -0.4394597E-02  0.2927258E-02
  0.7500000E+01 -0.3523349E-03  0.1222176E-02  0.6625684E+05  0.2117711E+02 -0.4394597E-02  0.3573906E-02
  0.7600000E+01 -0.3523349E-03  0.1391934E-02  0.6625684E+05 -0.8023060E+02 -0.4394597E-02  0.4163902E-02
  0.7700000E+01 -0.3523349E-03  0.1531336E-02  0.6625684E+05 -0.1571544E+03 -0.4394597E-02  0.4655418E-02
  0.7800000E+01 -0.3523349E-03  0.1626925E-02  0.6625684E+05 -0.2051295E+03 -0.4394597E-02  0.5005646E-02
  0.7900000E+01 -0.3523349E-03  0.1665670E-02  0.6625684E+05 -0.2217397E+03 -0.4394597E-02  0.5174060E-02
  0.8000000E+01 -0.3523349E-03  0.1636112E-02  0.6625684E+05 -0.2068084E+03 -0.4394597E-02  0.5125882E-02
  0.8100000E+01 -0.3523349E-03  0.1529534E-02  0.6625684E+05 -0.1623829E+03 -0.4394597E-02  0.4835506E-02
  0.8200000E+01 -0.3523349E-03  0.1341050E-02  0.6625684E+05 -0.9258634E+02 -0.4394597E-02  0.4289621E-02
  0.8300000E+01 -0.3523349E-03  0.1070508E-02  0.6625684E+05 -0.3286668E+01 -0.4394597E-02  0.3489673E-02
  0.8400001E+01 -0.3523349E-03  0.7231047E-03  0.6625684E+05  0.9832018E+02 -0.4394597E-02  0.2453433E-02
  0.8500000E+01 -0.3523349E-03  0.3096415E-03  0.6625684E+05  0.2042883E+03 -0.4394597E-02  0.1215475E-02
  0.8600000E+01 -0.3523349E-03 -0.1536686E-03  0.6625684E+05  0.3064597E+03 -0.4394597E-02 -0.1737011E-03
  0.8700000E+01 -0.3523349E-03 -0.6457707E-03  0.6625684E+05  0.3970762E+03 -0.4394597E-02 -0.1649620E-02
  0.8800000E+01 -0.3523349E-03 -0.1141847E-02  0.6625684E+05  0.4693022E+03 -0.4394597E-02 -0.3137253E-02
  0.8900001E+01 -0.3523349E-03 -0.1614700E-02  0.6625684E+05  0.5177496E+03 -0.4394597E-02 -0.4555253E-02
  0.9000000E+01 -0.3523349E-03 -0.2036464E-02  0.6625684E+05  0.5387383E+03 -0.4394597E-02 -0.5821110E-02
  0.9100000E+01 -0.3523349E-03 -0.2380502E-02  0.6625684E+05  0.5306286E+03 -0.4394597E-02 -0.6856725E-02
  0.9200000E+01 -0.3523349E-03 -0.2623302E-02  0.6625684E+05  0.4938253E+03 -0.4394597E-02 -0.7593919E-02
  0.9300000E+01 -0.3523349E-03 -0.2746311E-02  0.6625684E+05  0.4307393E+03 -0.4394597E-02 -0.7979658E-02
  0.9400001E+01 -0.3523349E-03 -0.2737476E-02  0.6625684E+05  0.3455686E+03 -0.4394597E-02 -0.7980403E-02
  0.9500000E+01 -0.3523349E-03 -0.2592443E-02  0.6625684E+05  0.2439721E+03 -0.4394597E-02 -0.7585320E-02
  0.9600000E+01 -0.3523349E-03 -0.2315213E-02  0.6625684E+05  0.1326535E+03 -0.4394597E-02 -0.6807990E-02
  0.9700000E+01 -0.3523349E-03 -0.1918263E-02  0.6625684E+05  0.1887366E+02 -0.4394597E-02 -0.5686453E-02
  0.9800000E+01 -0.3523349E-03 -0.1422040E-02  0.6625684E+05 -0.9006386E+02 -0.4394597E-02 -0.4281520E-02
  0.9900001E+01 -0.3523349E-03 -0.8538833E-03  0.6625684E+05 -0.1872707E+03 -0.4394597E-02 -0.2673413E-02
  0.1000000E+02 -0.3523349E-03 -0.2463897E-03  0.6625684E+05 -0.2667925E+03 -0.4394597E-02 -0.9568852E-03
  0.1010000E+02 -0.3523349E-03  0.3646489E-03  0.6625684E+05 -0.3238946E+03 -0.4394597E-02  0.7648601E-03
  0.1020000E+02 -0.3523349E-03  0.9425713E-03  0.6625684E+05 -0.3554490E+03 -0.4394597E-02  0.2386931E-02
  0.1030000E+02 -0.3523349E-03  0.1452357E-02  0.6625684E+05 -0.3600049E+03 -0.4394597E-02  0.3809950E-02
  0.1040000E+02 -0.3523349E-03  0.1863014E-02  0.6625684E+05 -0.3379077E+03 -0.4394597E-02  0.4946847E-02
  0.1050000E+02 -0.3523349E-03  0.2149795E-02  0.6625684E+05 -0.2911870E+03 -0.4394597E-02  0.5729104E-02
  0.1060000E+02 -0.3523349E-03  0.2295982E-02  0.6625684E+05 -0.2234223E+03 -0.4394597E-02  0.6111682E-02
  0.1070000E+02 -0.3523349E-03  0.2294129E-02  0.6625684E+05 -0.1394282E+03 -0.4394597E-02  0.6076385E-02
  0.1080000E+02 -0.3523349E-03  0.2146677E-02  0.6625684E+05 -0.4497520E+02 -0.4394597E-02  0.5633382E-02
  0.1090000E+02 -0.3523349E-03  0.1865854E-02  0.6625684E+05  0.5367133E+02 -0.4394597E-02  0.4820697E-02
  0.1100000E+02 -0.3523349E-03  0.1472894E-02  0.6625684E+05  0.1500994E+03 -0.4394597E-02  0.3701742E-02
  0.1110000E+02 -0.3523349E-03  0.9965772E-03  0.6625684E+05  0.2381725E+03 -0.4394597E-02  0.2360955E-02
  0.1120000E+02 -0.3523349E-03  0.4712639E-03  0.6625684E+05  0.3123984E+03 -0.4394597E-02  0.8980159E-03
  0.1130000E+02 -0.3523349E-03 -0.6553907E-04  0.6625684E+05  0.3682860E+03 -0.4394597E-02 -0.5792215E-03
  0.1140000E+02 -0.3523349E-03 -0.5757810E-03  0.6625684E+05  0.4025299E+03 -0.4394597E-02 -0.1962236E-02
  0.1150000E+02 -0.3523349E-03 -0.1023554E-02  0.6625684E+05  0.4132435E+03 -0.4394597E-02 -0.3149533E-02
  0.1160000E+02 -0.3523349E-03 -0.1377630E-02  0.6625684E+05  0.4000110E+03 -0.4394597E-02 -0.4053848E-02
  0.1170000E+02 -0.3523349E-03 -0.1613602E-02  0.6625684E+05  0.3638771E+03 -0.4394597E-02 -0.4608216E-02