 VARIABLES="Time (s)"
"AddedMass    1" "IRF    1"
"AddedMass    2" "IRF    2"
"AddedMass    3" "IRF    3"
Zone t="DoF    1",I=   160,F=POINT
  0.0000000E+00  0.4233438E+04  0.4687891E+04 -0.7305738E-03 -0.4596690E-03  0.1830352E+05  0.2229271E+05
  0.1000000E+00  0.4233438E+04  0.4533402E+04 -0.7305738E-03 -0.4680400E-03  0.1830352E+05  0.2155547E+05
  0.2000000E+00  0.4233438E+04  0.4081226E+04 -0.7305738E-03 -0.4921386E-03  0.1830352E+05  0.1939778E+05
  0.3000000E+00  0.4233438E+04  0.3364358E+04 -0.7305738E-03 -0.5290094E-03  0.1830352E+05  0.1597746E+05
  0.4000000E+00  0.4233438E+04  0.2434908E+04 -0.7305738E-03 -0.5740126E-03  0.1830352E+05  0.1154377E+05
  0.5000000E+00  0.4233438E+04  0.1360046E+04 -0.7305738E-03 -0.6212250E-03  0.1830352E+05  0.6417930E+04
  0.6000000E+00  0.4233438E+04  0.2167738E+03 -0.7305738E-03 -0.6639558E-03  0.1830352E+05  0.9681204E+03
  0.7000000E+00  0.4233438E+04 -0.9140055E+03 -0.7305738E-03 -0.6953288E-03  0.1830352E+05 -0.4418973E+04
  0.8000000E+00  0.4233438E+04 -0.1953681E+04 -0.7305738E-03 -0.7088847E-03  0.1830352E+05 -0.9367790E+04
  0.9000000E+00  0.4233438E+04 -0.2831856E+04 -0.7305738E-03 -0.6991536E-03  0.1830352E+05 -0.1354225E+05
  0.1000000E+01  0.4233438E+04 -0.3491549E+04 -0.7305738E-03 -0.6621474E-03  0.1830352E+05 -0.1667066E+05
  0.1100000E+01  0.4233438E+04 -0.3893256E+04 -0.7305738E-03 -0.5957310E-03  0.1830352E+05 -0.1856507E+05
  0.1200000E+01  0.4233438E+04 -0.4017557E+04 -0.7305738E-03 -0.4998489E-03  0.1830352E+05 -0.1913379E+05
  0.1300000E+01  0.4233438E+04 -0.3866105E+04 -0.7305738E-03 -0.3765788E-03  0.1830352E+05 -0.1838598E+05
  0.1400000E+01  0.4233438E+04 -0.3460920E+04 -0.7305738E-03 -0.2300194E-03  0.1830352E+05 -0.1642825E+05
  0.1500000E+01  0.4233438E+04 -0.2842090E+04 -0.7305738E-03 -0.6601581E-04  0.1830352E+05 -0.1345354E+05
  0.1600000E+01  0.4233438E+04 -0.2064118E+04 -0.7305738E-03  0.1082465E-03  0.1830352E+05 -0.9723559E+04
  0.1700000E+01  0.4233438E+04 -0.1191206E+04 -0.7305738E-03  0.2847515E-03  0.1830352E+05 -0.5546171E+04
  0.1800000E+01  0.4233438E+04 -0.2919279E+03 -0.7305738E-03  0.4552164E-03  0.1830352E+05 -0.1249775E+04
  0.1900000E+01  0.4233438E+04  0.5662977E+03 -0.7305738E-03  0.6116686E-03  0.1830352E+05  0.2843145E+04
  0.2000000E+01  0.4233438E+04  0.1322441E+04 -0.7305738E-03  0.7469860E-03  0.1830352E+05  0.6441105E+04
  0.2100000E+01  0.4233438E+04  0.1926405E+04 -0.7305738E-03  0.8553595E-03  0.1830352E+05  0.9305342E+04
  0.2200000E+01  0.4233438E+04  0.2342510E+04 -0.7305738E-03  0.9326454E-03  0.1830352E+05  0.1126647E+05
  0.2300000E+01  0.4233438E+04  0.2551693E+04 -0.7305738E-03  0.9765816E-03  0.1830352E+05  0.1223489E+05
  0.2400000E+01  0.4233438E+04  0.2552232E+04 -0.7305738E-03  0.9868538E-03  0.1830352E+05  0.1220420E+05
  0.2500000E+01  0.4233438E+04  0.2359046E+04 -0.7305738E-03  0.9650196E-03  0.1830352E+05  0.1124770E+05
  0.2600000E+01  0.4233438E+04  0.2001634E+04 -0.7305738E-03  0.9142946E-03  0.1830352E+05  0.9508408E+04
  0.2700000E+01  0.4233438E+04  0.1520906E+04 -0.7305738E-03  0.8392315E-03  0.1830352E+05  0.7183773E+04
  0.2800000E+01  0.4233438E+04  0.9651957E+03 -0.7305738E-03  0.7453217E-03  0.1830352E+05  0.4506457E+04
  0.2900000E+01  0.4233438E+04  0.3858398E+03 -0.7305738E-03  0.6385525E-03  0.1830352E+05  0.1723093E+04
  0.3000000E+01  0.4233438E+04 -0.1672818E+03 -0.7305738E-03  0.5249684E-03  0.1830352E+05 -0.9271230E+03
  0.3100000E+01  0.4233438E+04 -0.6498816E+03 -0.7305738E-03  0.4102585E-03  0.1830352E+05 -0.3232283E+04
  0.3200000E+01  0.4233438E+04 -0.1026703E+04 -0.7305738E-03  0.2994162E-03  0.1830352E+05 -0.5024190E+04
  0.3300000E+01  0.4233438E+04 -0.1274025E+04 -0.7305738E-03  0.1964830E-03  0.1830352E+05 -0.6190323E+04
  0.3400000E+01  0.4233438E+04 -0.1381026E+04 -0.7305738E-03  0.1043990E-03  0.1830352E+05 -0.6680289E+04
  0.3500000E+01  0.4233438E+04 -0.1349967E+04 -0.7305738E-03  0.2495865E-04  0.1830352E+05 -0.6506573E+04
  0.3600000E+01  0.4233438E+04 -0.1195206E+04 -0.7305738E-03 -0.4113359E-04  0.1830352E+05 -0.5739720E+04
  0.3700000E+01  0.4233438E+04 -0.9412002E+03 -0.7305738E-03 -0.9412043E-04  0.1830352E+05 -0.4498620E+04
  0.3800000E+01  0.4233438E+04 -0.6197112E+03 -0.7305738E-03 -0.1349858E-03  0.1830352E+05 -0.2937000E+04
  0.3900000E+01  0.4233438E+04 -0.2664991E+03 -0.7305738E-03 -0.1652139E-03  0.1830352E+05 -0.1227471E+04
  0.4000000E+01  0.4233438E+04  0.8216521E+02 -0.7305738E-03 -0.1865367E-03  0.1830352E+05  0.4552573E+03
  0.4100000E+01  0.4233438E+04  0.3928661E+03 -0.7305738E-03 -0.2007049E-03  0.1830352E+05  0.1950574E+04
  0.4200000E+01  0.4233438E+04  0.6379628E+03 -0.7305738E-03 -0.2092942E-03  0.1830352E+05  0.3125967E+04
  0.4300000E+01  0.4233438E+04  0.7978298E+03 -0.7305738E-03 -0.2135748E-03  0.1830352E+05  0.3887752E+04
  0.4400000E+01  0.4233438E+04  0.8622520E+03 -0.7305738E-03 -0.2144447E-03  0.1830352E+05  0.4187713E+04
  0.4500000E+01  0.4233438E+04  0.8308663E+03 -0.7305738E-03 -0.2124334E-03  0.1830352E+05  0.4025143E+04
  0.4600000E+01  0.4233438E+04  0.7126577E+03 -0.7305738E-03 -0.2077649E-03  0.1830352E+05  0.3444333E+04
  0.4700000E+01  0.4233438E+04  0.5246091E+03 -0.7305738E-03 -0.2004687E-03  0.1830352E+05  0.2527995E+04
  0.4800000E+01  0.4233438E+04  0.2896574E+03 -0.7305738E-03 -0.1905178E-03  0.1830352E+05  0.1387359E+04
  0.4900000E+01  0.4233438E+04  0.3417879E+02 -0.7305738E-03 -0.1779729E-03  0.1830352E+05  0.1500116E+03
  0.5000000E+01  0.4233438E+04 -0.2147385E+03 -0.7305738E-03 -0.1631109E-03  0.1830352E+05 -0.1053264E+04
  0.5100000E+01  0.4233438E+04 -0.4319590E+03 -0.7305738E-03 -0.1465169E-03  0.1830352E+05 -0.2101328E+04
  0.5200000E+01  0.4233438E+04 -0.5966645E+03 -0.7305738E-03 -0.1291229E-03  0.1830352E+05 -0.2894058E+04
  0.5300000E+01  0.4233438E+04 -0.6941965E+03 -0.7305738E-03 -0.1121887E-03  0.1830352E+05 -0.3361192E+04
  0.5400000E+01  0.4233438E+04 -0.7172322E+03 -0.7305738E-03 -0.9721819E-04  0.1830352E+05 -0.3467947E+04
  0.5500000E+01  0.4233438E+04 -0.6661871E+03 -0.7305738E-03 -0.8582139E-04  0.1830352E+05 -0.3216907E+04
  0.5600000E+01  0.4233438E+04 -0.5488644E+03 -0.7305738E-03 -0.7953215E-04  0.1830352E+05 -0.2646273E+04
  0.5700000E+01  0.4233438E+04 -0.3793875E+03 -0.7305738E-03 -0.7960400E-04  0.1830352E+05 -0.1824663E+04
  0.5800000E+01  0.4233438E+04 -0.1765670E+03 -0.7305738E-03 -0.8680416E-04  0.1830352E+05 -0.8432040E+03
  0.5900000E+01  0.4233438E+04  0.3813358E+02 -0.7305738E-03 -0.1012363E-03  0.1830352E+05  0.1943178E+03
  0.6000000E+01  0.4233438E+04  0.2428204E+03 -0.7305738E-03 -0.1222042E-03  0.1830352E+05  0.1182187E+04
  0.6100000E+01  0.4233438E+04  0.4173424E+03 -0.7305738E-03 -0.1481546E-03  0.1830352E+05  0.2023235E+04
  0.6200000E+01  0.4233438E+04  0.5452269E+03 -0.7305738E-03 -0.1766906E-03  0.1830352E+05  0.2638172E+04
  0.6300000E+01  0.4233438E+04  0.6151759E+03 -0.7305738E-03 -0.2046868E-03  0.1830352E+05  0.2972768E+04
  0.6400000E+01  0.4233438E+04  0.6220193E+03 -0.7305738E-03 -0.2284827E-03  0.1830352E+05  0.3002429E+04
  0.6500000E+01  0.4233438E+04  0.5670143E+03 -0.7305738E-03 -0.2441550E-03  0.1830352E+05  0.2733594E+04
  0.6600000E+01  0.4233438E+04  0.4575174E+03 -0.7305738E-03 -0.2478482E-03  0.1830352E+05  0.2202120E+04
  0.6700000E+01  0.4233438E+04  0.3060607E+03 -0.7305738E-03 -0.2361328E-03  0.1830352E+05  0.1468784E+04
  0.6800000E+01  0.4233438E+04  0.1289530E+03 -0.7305738E-03 -0.2063644E-03  0.1830352E+05  0.6125168E+03
  0.6900000E+01  0.4233438E+04 -0.5545580E+02 -0.7305738E-03 -0.1570097E-03  0.1830352E+05 -0.2780014E+03
  0.7000000E+01  0.4233438E+04 -0.2286524E+03 -0.7305738E-03 -0.8790762E-04  0.1830352E+05 -0.1113404E+04
  0.7100000E+01  0.4233438E+04 -0.3737889E+03 -0.7305738E-03 -0.4366187E-06  0.1830352E+05 -0.1812460E+04
  0.7200000E+01  0.4233438E+04 -0.4773101E+03 -0.7305738E-03  0.1024309E-03  0.1830352E+05 -0.2309922E+04
  0.7300000E+01  0.4233438E+04 -0.5301857E+03 -0.7305738E-03  0.2162020E-03  0.1830352E+05 -0.2562441E+04
  0.7400000E+01  0.4233438E+04 -0.5286774E+03 -0.7305738E-03  0.3350631E-03  0.1830352E+05 -0.2552251E+04
  0.7500000E+01  0.4233438E+04 -0.4745543E+03 -0.7305738E-03  0.4522028E-03  0.1830352E+05 -0.2288180E+04
  0.7600000E+01  0.4233438E+04 -0.3747534E+03 -0.7305738E-03  0.5602347E-03  0.1830352E+05 -0.1803977E+04
  0.7700000E+01  0.4233438E+04 -0.2405448E+03 -0.7305738E-03  0.6516930E-03  0.1830352E+05 -0.1154262E+04
  0.7800000E+01  0.4233438E+04 -0.8629506E+02 -0.7305738E-03  0.7195624E-03  0.1830352E+05 -0.4085402E+03
  0.7900000E+01  0.4233438E+04  0.7205247E+02 -0.7305738E-03  0.7578135E-03  0.1830352E+05  0.3561522E+03
  0.8000000E+01  0.4233438E+04  0.2185924E+03 -0.7305738E-03  0.7618850E-03  0.1830352E+05  0.1063042E+04
  0.8100000E+01  0.4233438E+04  0.3390493E+03 -0.7305738E-03  0.7290896E-03  0.1830352E+05  0.1643301E+04
  0.8200000E+01  0.4233438E+04  0.4221334E+03 -0.7305738E-03  0.6588998E-03  0.1830352E+05  0.2042580E+04
  0.8300000E+01  0.4233438E+04  0.4605931E+03 -0.7305738E-03  0.5530881E-03  0.1830352E+05  0.2226069E+04
  0.8400001E+01  0.4233438E+04  0.4518169E+03 -0.7305738E-03  0.4157165E-03  0.1830352E+05  0.2181389E+04
  0.8500000E+01  0.4233438E+04  0.3979743E+03 -0.7305738E-03  0.2529549E-03  0.1830352E+05  0.1919241E+04
  0.8600000E+01  0.4233438E+04  0.3056656E+03 -0.7305738E-03  0.7274516E-04  0.1830352E+05  0.1471696E+04
  0.8700000E+01  0.4233438E+04  0.1851544E+03 -0.7305738E-03 -0.1156595E-03  0.1830352E+05  0.8884781E+03
  0.8800000E+01  0.4233438E+04  0.4924203E+02 -0.7305738E-03 -0.3022752E-03  0.1830352E+05  0.2315028E+03
  0.8900001E+01  0.4233438E+04 -0.8806071E+02 -0.7305738E-03 -0.4770168E-03  0.1830352E+05 -0.4315362E+03
  0.9000000E+01  0.4233438E+04 -0.2129770E+03 -0.7305738E-03 -0.6303535E-03  0.1830352E+05 -0.1034138E+04
  0.9100000E+01  0.4233438E+04 -0.3133183E+03 -0.7305738E-03 -0.7539548E-03  0.1830352E+05 -0.1517534E+04
  0.9200000E+01  0.4233438E+04 -0.3796584E+03 -0.7305738E-03 -0.8412322E-03  0.1830352E+05 -0.1836342E+04
  0.9300000E+01  0.4233438E+04 -0.4062142E+03 -0.7305738E-03 -0.8878044E-03  0.1830352E+05 -0.1962803E+04
  0.9400001E+01  0.4233438E+04 -0.3913177E+03 -0.7305738E-03 -0.8917882E-03  0.1830352E+05 -0.1889048E+04
  0.9500000E+01  0.4233438E+04 -0.3374914E+03 -0.7305738E-03 -0.8539460E-03  0.1830352E+05 -0.1627442E+04
  0.9600000E+01  0.4233438E+04 -0.2510852E+03 -0.7305738E-03 -0.7776360E-03  0.1830352E+05 -0.1208807E+04
  0.9700000E+01  0.4233438E+04 -0.1415548E+03 -0.7305738E-03 -0.6685977E-03  0.1830352E+05 -0.6789280E+03
  0.9800000E+01  0.4233438E+04 -0.2043559E+02 -0.7305738E-03 -0.5345644E-03  0.1830352E+05 -0.9358885E+02
  0.9900001E+01  0.4233438E+04  0.9985109E+02 -0.7305738E-03 -0.3847493E-03  0.1830352E+05  0.4872016E+03
  0.1000000E+02  0.4233438E+04  0.2072654E+03 -0.7305738E-03 -0.2292223E-03  0.1830352E+05  0.1005332E+04
  0.1010000E+02  0.4233438E+04  0.2913454E+03 -0.7305738E-03 -0.7822522E-04  0.1830352E+05  0.1410356E+04
  0.1020000E+02  0.4233438E+04  0.3442075E+03 -0.7305738E-03  0.5851050E-04  0.1830352E+05  0.1664321E+04
  0.1030000E+02  0.4233438E+04  0.3612820E+03 -0.7305738E-03  0.1724300E-03  0.1830352E+05  0.1745297E+04
  0.1040000E+02  0.4233438E+04  0.3416842E+03 -0.7305738E-03  0.2567219E-03  0.1830352E+05  0.1649170E+04
  0.1050000E+02  0.4233438E+04  0.2882300E+03 -0.7305738E-03  0.3067715E-03  0.1830352E+05  0.1389682E+04
  0.1060000E+02  0.4233438E+04  0.2070535E+03 -0.7305738E-03  0.3204689E-03  0.1830352E+05  0.9965869E+03
  0.1070000E+02  0.4233438E+04  0.1069312E+03 -0.7305738E-03  0.2983258E-03  0.1830352E+05  0.5123668E+03
  0.1080000E+02  0.4233438E+04 -0.1667144E+01 -0.7305738E-03  0.2434309E-03  0.1830352E+05 -0.1236046E+02
  0.1090000E+02  0.4233438E+04 -0.1076534E+03 -0.7305738E-03  0.1612111E-03  0.1830352E+05 -0.5240335E+03
  0.1100000E+02  0.4233438E+04 -0.2004529E+03 -0.7305738E-03  0.5904386E-04  0.1830352E+05 -0.9716149E+03
  0.1110000E+02  0.4233438E+04 -0.2710516E+03 -0.7305738E-03 -0.5427346E-04  0.1830352E+05 -0.1311644E+04
  0.1120000E+02  0.4233438E+04 -0.3128560E+03 -0.7305738E-03 -0.1691432E-03  0.1830352E+05 -0.1512380E+04
  0.1130000E+02  0.4233438E+04 -0.3223117E+03 -0.7305738E-03 -0.2758500E-03  0.1830352E+05 -0.1556781E+04
  0.1140000E+02  0.4233438E+04 -0.2991784E+03 -0.7305738E-03 -0.3652358E-03  0.1830352E+05 -0.1443813E+04
  0.1150000E+02  0.4233438E+04 -0.2464972E+03 -0.7305738E-03 -0.4293476E-03  0.1830352E+05 -0.1188289E+04
  0.1160000E+02  0.4233438E+04 -0.1701954E+03 -0.7305738E-03 -0.4619914E-03  0.1830352E+05 -0.8189388E+03
  0.1170000E+02  0.4233438E+04 -0.7845046E+02 -0.7305738E-03 -0.4591596E-03  0.1830352E+05 -0.3753333E+03
  0.1180000E+02  0.4233438E+04  0.1919643E+02 -0.7305738E-03 -0.4193129E-03  0.1830352E+05  0.9640749E+02
  0.1190000E+02  0.4233438E+04  0.1128124E+03 -0.7305738E-03 -0.3434795E-03  0.1830352E+05  0.5483056E+03
  0.1200000E+02  0.4233438E+04  0.1930815E+03 -0.7305738E-03 -0.2351782E-03  0.1830352E+05  0.9354056E+03
  0.1210000E+02  0.4233438E+04  0.2522328E+03 -0.7305738E-03 -0.1001639E-03  0.1830352E+05  0.1220242E+04
  0.1220000E+02  0.4233438E+04  0.2847705E+03 -0.7305738E-03  0.5397328E-04  0.1830352E+05  0.1376365E+04
  0.1230000E+02  0.4233438E+04  0.2879939E+03 -0.7305738E-03  0.2183551E-03  0.1830352E+05  0.1390836E+04
  0.1240000E+02  0.4233438E+04  0.2621961E+03 -0.7305738E-03  0.3834271E-03  0.1830352E+05  0.1265185E+04
  0.1250000E+02  0.4233438E+04  0.2105850E+03 -0.7305738E-03  0.5396297E-03  0.1830352E+05  0.1015008E+04
  0.1260000E+02  0.4233438E+04  0.1388795E+03 -0.7305738E-03  0.6780666E-03  0.1830352E+05  0.6680119E+03
  0.1270000E+02  0.4233438E+04  0.5471015E+02 -0.7305738E-03  0.7911029E-03  0.1830352E+05  0.2611132E+03
  0.1280000E+02  0.4233438E+04 -0.3321283E+02 -0.7305738E-03  0.8728877E-03  0.1830352E+05 -0.1635915E+03
  0.1290000E+02  0.4233438E+04 -0.1159728E+03 -0.7305738E-03  0.9197276E-03  0.1830352E+05 -0.5630395E+03
  0.1300000E+02  0.4233438E+04 -0.1853634E+03 -0.7305738E-03  0.9303080E-03  0.1830352E+05 -0.8976309E+03
  0.1310000E+02  0.4233438E+04 -0.2346856E+03 -0.7305738E-03  0.9057287E-03  0.1830352E+05 -0.1135073E+04
  0.1320000E+02  0.4233438E+04 -0.2593959E+03 -0.7305738E-03  0.8493723E-03  0.1830352E+05 -0.1253506E+04
  0.1330000E+02  0.4233438E+04 -0.2575182E+03 -0.7305738E-03  0.7665846E-03  0.1830352E+05 -0.1243480E+04
  0.1340000E+02  0.4233438E+04 -0.2297832E+03 -0.7305738E-03  0.6642322E-03  0.1830352E+05 -0.1108622E+04
  0.1350000E+02  0.4233438E+04 -0.1795075E+03 -0.7305738E-03  0.5501349E-03  0.1830352E+05 -0.8650392E+03
  0.1360000E+02  0.4233438E+04 -0.1122043E+03 -0.7305738E-03  0.4324301E-03  0.1830352E+05 -0.5394318E+03
  0.1370000E+02  0.4233438E+04 -0.3498496E+02 -0.7305738E-03  0.3189362E-03  0.1830352E+05 -0.1661958E+03
  0.1380000E+02  0.4233438E+04  0.4418859E+02 -0.7305738E-03  0.2165223E-03  0.1830352E+05  0.2161919E+03
  0.1390000E+02  0.4233438E+04  0.1173128E+03 -0.7305738E-03  0.1305871E-03  0.1830352E+05  0.5690839E+03
  0.1400000E+02  0.4233438E+04  0.1771636E+03 -0.7305738E-03  0.6464160E-04  0.1830352E+05  0.8576235E+03
  0.1410000E+02  0.4233438E+04  0.2179927E+03 -0.7305738E-03  0.2004947E-04  0.1830352E+05  0.1054107E+04
  0.1420000E+02  0.4233438E+04  0.2360742E+03 -0.7305738E-03 -0.4036866E-05  0.1830352E+05  0.1140614E+04
  0.1430000E+02  0.4233438E+04  0.2300506E+03 -0.7305738E-03 -0.1058027E-04  0.1830352E+05  0.1110673E+04
  0.1440000E+02  0.4233438E+04  0.2010111E+03 -0.7305738E-03 -0.4363051E-05  0.1830352E+05  0.9696322E+03
  0.1450000E+02  0.4233438E+04  0.1523393E+03 -0.7305738E-03  0.8446421E-05  0.1830352E+05  0.7339085E+03
  0.1460000E+02  0.4233438E+04  0.8931940E+02 -0.7305738E-03  0.2086241E-04  0.1830352E+05  0.4290882E+03
  0.1470000E+02  0.4233438E+04  0.1858175E+02 -0.7305738E-03  0.2571729E-04  0.1830352E+05  0.8723268E+02
  0.1480000E+02  0.4233438E+04 -0.5261293E+02 -0.7305738E-03  0.1632709E-04  0.1830352E+05 -0.2565733E+03
  0.1490000E+02  0.4233438E+04 -0.1170848E+03 -0.7305738E-03 -0.1287906E-04  0.1830352E+05 -0.5676628E+03
  0.1500000E+02  0.4233438E+04 -0.1684917E+03 -0.7305738E-03 -0.6580138E-04  0.1830352E+05 -0.8154398E+03
  0.1510000E+02  0.4233438E+04 -0.2019201E+03 -0.7305738E-03 -0.1442548E-03  0.1830352E+05 -0.9762284E+03
  0.1520000E+02  0.4233438E+04 -0.2143660E+03 -0.7305738E-03 -0.2477057E-03  0.1830352E+05 -0.1035589E+04
  0.1530000E+02  0.4233438E+04 -0.2049973E+03 -0.7305738E-03 -0.3732146E-03  0.1830352E+05 -0.9895804E+03
  0.1540000E+02  0.4233438E+04 -0.1751899E+03 -0.7305738E-03 -0.5155579E-03  0.1830352E+05 -0.8449229E+03
  0.1550000E+02  0.4233438E+04 -0.1283524E+03 -0.7305738E-03 -0.6675573E-03  0.1830352E+05 -0.6181489E+03
  0.1560000E+02  0.4233438E+04 -0.6952990E+02 -0.7305738E-03 -0.8205714E-03  0.1830352E+05 -0.3336782E+03
  0.1570000E+02  0.4233438E+04 -0.4887603E+01 -0.7305738E-03 -0.9651108E-03  0.1830352E+05 -0.2131915E+02
  0.1580000E+02  0.4233438E+04  0.5896107E+02 -0.7305738E-03 -0.1091546E-02  0.1830352E+05  0.2869744E+03
  0.1590000E+02  0.4233438E+04  0.1156072E+03 -0.7305738E-03 -0.1190830E-02  0.1830352E+05  0.5602618E+03
Zone t="DoF    2",I=   160,F=POINT
  0.0000000E+00 -0.9798365E-04  0.4436119E-03  0.1677729E+05  0.3470305E+05 -0.1532704E-02  0.1180895E-02
  0.1000000E+00 -0.9798365E-04  0.4264333E-03  0.1677729E+05  0.3384134E+05 -0.1532704E-02  0.1129725E-02
  0.2000000E+00 -0.9798365E-04  0.3763861E-03  0.1677729E+05  0.3131175E+05 -0.1532704E-02  0.9806767E-03
  0.3000000E+00 -0.9798365E-04  0.2978012E-03  0.1677729E+05  0.2727688E+05 -0.1532704E-02  0.7467269E-03
  0.4000000E+00 -0.9798365E-04  0.1974572E-03  0.1677729E+05  0.2199439E+05 -0.1532704E-02  0.4481777E-03
  0.5000000E+00 -0.9798365E-04  0.8396411E-04  0.1677729E+05  0.1579820E+05 -0.1532704E-02  0.1107968E-03
  0.6000000E+00 -0.9798365E-04 -0.3301676E-04  0.1677729E+05  0.9074304E+04 -0.1532704E-02 -0.2365301E-03
  0.7000000E+00 -0.9798365E-04 -0.1436441E-03  0.1677729E+05  0.2232929E+04 -0.1532704E-02 -0.5644177E-03
  0.8000000E+00 -0.9798365E-04 -0.2387786E-03  0.1677729E+05 -0.4320499E+04 -0.1532704E-02 -0.8456222E-03
  0.9000000E+00 -0.9798365E-04 -0.3107931E-03  0.1677729E+05 -0.1021352E+05 -0.1532704E-02 -0.1057453E-02
  0.1000000E+01 -0.9798365E-04 -0.3542368E-03  0.1677729E+05 -0.1513182E+05 -0.1532704E-02 -0.1183740E-02
  0.1100000E+01 -0.9798365E-04 -0.3662925E-03  0.1677729E+05 -0.1883932E+05 -0.1532704E-02 -0.1216161E-02
  0.1200000E+01 -0.9798365E-04 -0.3469870E-03  0.1677729E+05 -0.2119208E+05 -0.1532704E-02 -0.1154832E-02
  0.1300000E+01 -0.9798365E-04 -0.2991371E-03  0.1677729E+05 -0.2214473E+05 -0.1532704E-02 -0.1008088E-02
  0.1400000E+01 -0.9798365E-04 -0.2280388E-03  0.1677729E+05 -0.2174944E+05 -0.1532704E-02 -0.7915157E-03
  0.1500000E+01 -0.9798365E-04 -0.1409321E-03  0.1677729E+05 -0.2014741E+05 -0.1532704E-02 -0.5263086E-03
  0.1600000E+01 -0.9798365E-04 -0.4629460E-04  0.1677729E+05 -0.1755416E+05 -0.1532704E-02 -0.2371468E-03
  0.1700000E+01 -0.9798365E-04  0.4696809E-04  0.1677729E+05 -0.1423961E+05 -0.1532704E-02  0.5021760E-04
  0.1800000E+01 -0.9798365E-04  0.1303581E-03  0.1677729E+05 -0.1050491E+05 -0.1532704E-02  0.3114135E-03
  0.1900000E+01 -0.9798365E-04  0.1965656E-03  0.1677729E+05 -0.6657926E+04 -0.1532704E-02  0.5257062E-03
  0.2000000E+01 -0.9798365E-04  0.2401240E-03  0.1677729E+05 -0.2989459E+04 -0.1532704E-02  0.6778469E-03
  0.2100000E+01 -0.9798365E-04  0.2578764E-03  0.1677729E+05  0.2480811E+03 -0.1532704E-02  0.7593347E-03
  0.2200000E+01 -0.9798365E-04  0.2492143E-03  0.1677729E+05  0.2857733E+04 -0.1532704E-02  0.7689785E-03
  0.2300000E+01 -0.9798365E-04  0.2160683E-03  0.1677729E+05  0.4709769E+04 -0.1532704E-02  0.7127225E-03
  0.2400000E+01 -0.9798365E-04  0.1626551E-03  0.1677729E+05  0.5747278E+04 -0.1532704E-02  0.6027560E-03
  0.2500000E+01 -0.9798365E-04  0.9501151E-04  0.1677729E+05  0.5985555E+04 -0.1532704E-02  0.4560186E-03
  0.2600000E+01 -0.9798365E-04  0.2035994E-04  0.1677729E+05  0.5505528E+04 -0.1532704E-02  0.2922554E-03
  0.2700000E+01 -0.9798365E-04 -0.5362529E-04  0.1677729E+05  0.4442135E+04 -0.1532704E-02  0.1318347E-03
  0.2800000E+01 -0.9798365E-04 -0.1195831E-03  0.1677729E+05  0.2968812E+04 -0.1532704E-02 -0.6457219E-05
  0.2900000E+01 -0.9798365E-04 -0.1711832E-03  0.1677729E+05  0.1279682E+04 -0.1532704E-02 -0.1074051E-03
  0.3000000E+01 -0.9798365E-04 -0.2037272E-03  0.1677729E+05 -0.4289465E+03 -0.1532704E-02 -0.1609371E-03
  0.3100000E+01 -0.9798365E-04 -0.2145788E-03  0.1677729E+05 -0.1976163E+04 -0.1532704E-02 -0.1631287E-03
  0.3200000E+01 -0.9798365E-04 -0.2033792E-03  0.1677729E+05 -0.3211567E+04 -0.1532704E-02 -0.1165318E-03
  0.3300000E+01 -0.9798365E-04 -0.1720322E-03  0.1677729E+05 -0.4026813E+04 -0.1532704E-02 -0.2979436E-04
  0.3400000E+01 -0.9798365E-04 -0.1244622E-03  0.1677729E+05 -0.4362629E+04 -0.1532704E-02  0.8337664E-04
  0.3500000E+01 -0.9798365E-04 -0.6617418E-04  0.1677729E+05 -0.4211037E+04 -0.1532704E-02  0.2058045E-03
  0.3600000E+01 -0.9798365E-04 -0.3658428E-05  0.1677729E+05 -0.3612749E+04 -0.1532704E-02  0.3188188E-03
  0.3700000E+01 -0.9798365E-04  0.5629367E-04  0.1677729E+05 -0.2650257E+04 -0.1532704E-02  0.4044029E-03
  0.3800000E+01 -0.9798365E-04  0.1072979E-03  0.1677729E+05 -0.1437444E+04 -0.1532704E-02  0.4472967E-03
  0.3900000E+01 -0.9798365E-04  0.1440355E-03  0.1677729E+05 -0.1068512E+03 -0.1532704E-02  0.4368233E-03
  0.4000000E+01 -0.9798365E-04  0.1627948E-03  0.1677729E+05  0.1204091E+04 -0.1532704E-02  0.3682514E-03
  0.4100000E+01 -0.9798365E-04  0.1618456E-03  0.1677729E+05  0.2366620E+04 -0.1532704E-02  0.2435344E-03
  0.4200000E+01 -0.9798365E-04  0.1416050E-03  0.1677729E+05  0.3272628E+04 -0.1532704E-02  0.7134946E-04
  0.4300000E+01 -0.9798365E-04  0.1045839E-03  0.1677729E+05  0.3844098E+04 -0.1532704E-02 -0.1335813E-03
  0.4400000E+01 -0.9798365E-04  0.5511595E-04  0.1677729E+05  0.4039255E+04 -0.1532704E-02 -0.3518377E-03
  0.4500000E+01 -0.9798365E-04 -0.1099060E-05  0.1677729E+05  0.3854931E+04 -0.1532704E-02 -0.5611798E-03
  0.4600000E+01 -0.9798365E-04 -0.5759463E-04  0.1677729E+05  0.3325099E+04 -0.1532704E-02 -0.7387813E-03
  0.4700000E+01 -0.9798365E-04 -0.1078146E-03  0.1677729E+05  0.2515964E+04 -0.1532704E-02 -0.8635918E-03
  0.4800000E+01 -0.9798365E-04 -0.1458023E-03  0.1677729E+05  0.1518126E+04 -0.1532704E-02 -0.9185964E-03
  0.4900000E+01 -0.9798365E-04 -0.1668322E-03  0.1677729E+05  0.4367508E+03 -0.1532704E-02 -0.8927353E-03
  0.5000000E+01 -0.9798365E-04 -0.1679173E-03  0.1677729E+05 -0.6192894E+03 -0.1532704E-02 -0.7822888E-03
  0.5100000E+01 -0.9798365E-04 -0.1481433E-03  0.1677729E+05 -0.1548134E+04 -0.1532704E-02 -0.5915696E-03
  0.5200000E+01 -0.9798365E-04 -0.1087937E-03  0.1677729E+05 -0.2264577E+04 -0.1532704E-02 -0.3328385E-03
  0.5300000E+01 -0.9798365E-04 -0.5325330E-04  0.1677729E+05 -0.2707686E+04 -0.1532704E-02 -0.2544712E-04
  0.5400000E+01 -0.9798365E-04  0.1330333E-04  0.1677729E+05 -0.2845824E+04 -0.1532704E-02  0.3057529E-03
  0.5500000E+01 -0.9798365E-04  0.8440707E-04  0.1677729E+05 -0.2678543E+04 -0.1532704E-02  0.6325667E-03
  0.5600000E+01 -0.9798365E-04  0.1529250E-03  0.1677729E+05 -0.2235464E+04 -0.1532704E-02  0.9260006E-03
  0.5700000E+01 -0.9798365E-04  0.2117661E-03  0.1677729E+05 -0.1572206E+04 -0.1532704E-02  0.1158950E-02
  0.5800000E+01 -0.9798365E-04  0.2545909E-03  0.1677729E+05 -0.7639780E+03 -0.1532704E-02  0.1308771E-02
  0.5900000E+01 -0.9798365E-04  0.2764560E-03  0.1677729E+05  0.1025239E+03 -0.1532704E-02  0.1359502E-02
  0.6000000E+01 -0.9798365E-04  0.2743313E-03  0.1677729E+05  0.9380873E+03 -0.1532704E-02  0.1303510E-02
  0.6100000E+01 -0.9798365E-04  0.2474306E-03  0.1677729E+05  0.1659805E+04 -0.1532704E-02  0.1142376E-02
  0.6200000E+01 -0.9798365E-04  0.1973331E-03  0.1677729E+05  0.2199043E+04 -0.1532704E-02  0.8869669E-03
  0.6300000E+01 -0.9798365E-04  0.1278719E-03  0.1677729E+05  0.2507680E+04 -0.1532704E-02  0.5566375E-03
  0.6400000E+01 -0.9798365E-04  0.4480277E-04  0.1677729E+05  0.2562171E+04 -0.1532704E-02  0.1776309E-03
  0.6500000E+01 -0.9798365E-04 -0.4471355E-04  0.1677729E+05  0.2365031E+04 -0.1532704E-02 -0.2191596E-03
  0.6600000E+01 -0.9798365E-04 -0.1327736E-03  0.1677729E+05  0.1943703E+04 -0.1532704E-02 -0.6009026E-03
  0.6700000E+01 -0.9798365E-04 -0.2114682E-03  0.1677729E+05  0.1347035E+04 -0.1532704E-02 -0.9357356E-03
  0.6800000E+01 -0.9798365E-04 -0.2736282E-03  0.1677729E+05  0.6397693E+03 -0.1532704E-02 -0.1195620E-02
  0.6900000E+01 -0.9798365E-04 -0.3135067E-03  0.1677729E+05 -0.1044027E+03 -0.1532704E-02 -0.1358878E-02
  0.7000000E+01 -0.9798365E-04 -0.3273316E-03  0.1677729E+05 -0.8104227E+03 -0.1532704E-02 -0.1412167E-02
  0.7100000E+01 -0.9798365E-04 -0.3136731E-03  0.1677729E+05 -0.1409306E+04 -0.1532704E-02 -0.1351705E-02
  0.7200000E+01 -0.9798365E-04 -0.2735943E-03  0.1677729E+05 -0.1844849E+04 -0.1532704E-02 -0.1183645E-02
  0.7300000E+01 -0.9798365E-04 -0.2105682E-03  0.1677729E+05 -0.2078755E+04 -0.1532704E-02 -0.9235454E-03
  0.7400000E+01 -0.9798365E-04 -0.1301649E-03  0.1677729E+05 -0.2093947E+04 -0.1532704E-02 -0.5949882E-03
  0.7500000E+01 -0.9798365E-04 -0.3954451E-04  0.1677729E+05 -0.1895613E+04 -0.1532704E-02 -0.2274644E-03
  0.7600000E+01 -0.9798365E-04  0.5320227E-04  0.1677729E+05 -0.1510032E+04 -0.1532704E-02  0.1462687E-03
  0.7700000E+01 -0.9798365E-04  0.1398034E-03  0.1677729E+05 -0.9813586E+03 -0.1532704E-02  0.4931460E-03
  0.7800000E+01 -0.9798365E-04  0.2125656E-03  0.1677729E+05 -0.3667352E+03 -0.1532704E-02  0.7827436E-03
  0.7900000E+01 -0.9798365E-04  0.2650907E-03  0.1677729E+05  0.2697887E+03 -0.1532704E-02  0.9900304E-03
  0.8000000E+01 -0.9798365E-04  0.2928602E-03  0.1677729E+05  0.8637634E+03 -0.1532704E-02  0.1097584E-02
  0.8100000E+01 -0.9798365E-04  0.2936508E-03  0.1677729E+05  0.1356835E+04 -0.1532704E-02  0.1097138E-02
  0.8200000E+01 -0.9798365E-04  0.2677297E-03  0.1677729E+05  0.1702302E+04 -0.1532704E-02  0.9902711E-03
  0.8300000E+01 -0.9798365E-04  0.2178198E-03  0.1677729E+05  0.1869505E+04 -0.1532704E-02  0.7882243E-03
  0.8400001E+01 -0.9798365E-04  0.1488341E-03  0.1677729E+05  0.1846402E+04 -0.1532704E-02  0.5108190E-03
  0.8500000E+01 -0.9798365E-04  0.6740769E-04  0.1677729E+05  0.1640300E+04 -0.1532704E-02  0.1846226E-03
  0.8600000E+01 -0.9798365E-04 -0.1873391E-04  0.1677729E+05  0.1276579E+04 -0.1532704E-02 -0.1595203E-03
  0.8700000E+01 -0.9798365E-04 -0.1014974E-03  0.1677729E+05  0.7957149E+03 -0.1532704E-02 -0.4892925E-03
  0.8800000E+01 -0.9798365E-04 -0.1731854E-03  0.1677729E+05  0.2488092E+03 -0.1532704E-02 -0.7738679E-03
  0.8900001E+01 -0.9798365E-04 -0.2272103E-03  0.1677729E+05 -0.3077093E+03 -0.1532704E-02 -0.9866935E-03
  0.9000000E+01 -0.9798365E-04 -0.2587082E-03  0.1677729E+05 -0.8179549E+03 -0.1532704E-02 -0.1107884E-02
  0.9100000E+01 -0.9798365E-04 -0.2649838E-03  0.1677729E+05 -0.1232055E+04 -0.1532704E-02 -0.1126003E-02
  0.9200000E+01 -0.9798365E-04 -0.2457513E-03  0.1677729E+05 -0.1511005E+04 -0.1532704E-02 -0.1039048E-02
  0.9300000E+01 -0.9798365E-04 -0.2031487E-03  0.1677729E+05 -0.1630318E+04 -0.1532704E-02 -0.8546030E-03
  0.9400001E+01 -0.9798365E-04 -0.1415243E-03  0.1677729E+05 -0.1582051E+04 -0.1532704E-02 -0.5891009E-03
  0.9500000E+01 -0.9798365E-04 -0.6701976E-04  0.1677729E+05 -0.1375245E+04 -0.1532704E-02 -0.2663214E-03
  0.9600000E+01 -0.9798365E-04  0.1301903E-04  0.1677729E+05 -0.1034563E+04 -0.1532704E-02  0.8480083E-04
  0.9700000E+01 -0.9798365E-04  0.9073135E-04  0.1677729E+05 -0.5974715E+03 -0.1532704E-02  0.4327674E-03
  0.9800000E+01 -0.9798365E-04  0.1584870E-03  0.1677729E+05 -0.1101634E+03 -0.1532704E-02  0.7463635E-03
  0.9900001E+01 -0.9798365E-04  0.2095970E-03  0.1677729E+05  0.3772469E+03 -0.1532704E-02  0.9974206E-03
  0.1000000E+02 -0.9798365E-04  0.2389411E-03  0.1677729E+05  0.8158226E+03 -0.1532704E-02  0.1163310E-02
  0.1010000E+02 -0.9798365E-04  0.2434452E-03  0.1677729E+05  0.1162716E+04 -0.1532704E-02  0.1228921E-02
  0.1020000E+02 -0.9798365E-04  0.2223658E-03  0.1677729E+05  0.1385241E+04 -0.1532704E-02  0.1187939E-02
  0.1030000E+02 -0.9798365E-04  0.1773588E-03  0.1677729E+05  0.1463967E+04 -0.1532704E-02  0.1043360E-02
  0.1040000E+02 -0.9798365E-04  0.1123294E-03  0.1677729E+05  0.1394297E+04 -0.1532704E-02  0.8071666E-03
  0.1050000E+02 -0.9798365E-04  0.3307321E-04  0.1677729E+05  0.1186654E+04 -0.1532704E-02  0.4992234E-03
  0.1060000E+02 -0.9798365E-04 -0.5325473E-04  0.1677729E+05  0.8650062E+03 -0.1532704E-02  0.1454989E-03
  0.1070000E+02 -0.9798365E-04 -0.1387871E-03  0.1677729E+05  0.4642407E+03 -0.1532704E-02 -0.2242098E-03
  0.1080000E+02 -0.9798365E-04 -0.2156603E-03  0.1677729E+05  0.2634442E+02 -0.1532704E-02 -0.5788732E-03
  0.1090000E+02 -0.9798365E-04 -0.2767188E-03  0.1677729E+05 -0.4038768E+03 -0.1532704E-02 -0.8888711E-03
  0.1100000E+02 -0.9798365E-04 -0.3161565E-03  0.1677729E+05 -0.7834132E+03 -0.1532704E-02 -0.1128483E-02
  0.1110000E+02 -0.9798365E-04 -0.3300326E-03  0.1677729E+05 -0.1075312E+04 -0.1532704E-02 -0.1278017E-02
  0.1120000E+02 -0.9798365E-04 -0.3166124E-03  0.1677729E+05 -0.1252207E+04 -0.1532704E-02 -0.1325353E-02
  0.1130000E+02 -0.9798365E-04 -0.2765151E-03  0.1677729E+05 -0.1298892E+04 -0.1532704E-02 -0.1266852E-02
  0.1140000E+02 -0.9798365E-04 -0.2126469E-03  0.1677729E+05 -0.1213539E+04 -0.1532704E-02 -0.1107505E-02
  0.1150000E+02 -0.9798365E-04 -0.1299406E-03  0.1677729E+05 -0.1007632E+04 -0.1532704E-02 -0.8603822E-03
  0.1160000E+02 -0.9798365E-04 -0.3490742E-04  0.1677729E+05 -0.7044637E+03 -0.1532704E-02 -0.5453794E-03
  0.1170000E+02 -0.9798365E-04  0.6492394E-04  0.1677729E+05 -0.3366223E+03 -0.1532704E-02 -0.1874859E-03