VARIABLES="w (rad/s)"
"A   1   1" "B   1   1"
"A   1   2" "B   1   2"
"A   1   3" "B   1   3"
Zone t="Motion of body    1 in DoF   1",I=    32,F=POINT
  0.1000000E+00  0.4783633E+04  0.6774438E-05 -0.1437217E-03 -0.2902631E-07  0.2087244E+05  0.3083433E-04
  0.2000000E+00  0.4791778E+04  0.9598097E-03  0.1089349E-02  0.5088873E-05  0.2090793E+05  0.4390267E-02
  0.3000000E+00  0.4816398E+04  0.1627215E-01  0.3799796E-03  0.3762590E-05  0.2101216E+05  0.7436083E-01
  0.4000000E+00  0.4833220E+04  0.1202468E+00  0.1633912E-03 -0.1945115E-05  0.2109005E+05  0.5498338E+00
  0.5000000E+00  0.4857461E+04  0.5632703E+00 -0.2830207E-02 -0.2052919E-03  0.2120385E+05  0.2577348E+01
  0.6000001E+00  0.4889350E+04  0.1974121E+01 -0.1127918E-02 -0.1181972E-03  0.2135602E+05  0.9041039E+01
  0.7000000E+00  0.4927228E+04  0.5654579E+01 -0.1318880E-02 -0.3774130E-03  0.2153671E+05  0.2592387E+02
  0.8000001E+00  0.4977086E+04  0.1395784E+02 -0.9453147E-02 -0.2482764E-02  0.2176766E+05  0.6406343E+02
  0.9000000E+00  0.5039115E+04  0.3069361E+02 -0.1064804E-02 -0.3738438E-03  0.2206666E+05  0.1410697E+03
  0.1000000E+01  0.5109940E+04  0.6154079E+02  0.4306853E-02  0.1864196E-02  0.2239558E+05  0.2832402E+03
  0.1100000E+01  0.5188019E+04  0.1142086E+03 -0.4439841E-02 -0.2458196E-02  0.2276831E+05  0.5264609E+03
  0.1200000E+01  0.5280277E+04  0.1985737E+03 -0.5777379E-02 -0.4231574E-02  0.2320568E+05  0.9169142E+03
  0.1300000E+01  0.5366774E+04  0.3259346E+03 -0.5373680E-02 -0.4012702E-02  0.2361435E+05  0.1507599E+04
  0.1400000E+01  0.5455087E+04  0.5076393E+03  0.2037372E-02  0.1938686E-02  0.2404196E+05  0.2352403E+04
  0.1500000E+01  0.5535687E+04  0.7543604E+03 -0.1835028E-03 -0.3710538E-03  0.2443170E+05  0.3502764E+04
  0.1600000E+01  0.5589159E+04  0.1073155E+04 -0.3348961E-02 -0.4393876E-02  0.2469229E+05  0.4993466E+04
  0.1700000E+01  0.5612734E+04  0.1463834E+04  0.1455686E-02  0.2630658E-02  0.2481850E+05  0.6825899E+04
  0.1800000E+01  0.5603356E+04  0.1918992E+04  0.5306801E-03  0.9728819E-03  0.2479341E+05  0.8968185E+04
  0.1900000E+01  0.5556096E+04  0.2423601E+04 -0.8650830E-03 -0.2492383E-02  0.2459143E+05  0.1135207E+05
  0.2000000E+01  0.5471281E+04  0.2956014E+04 -0.2424121E-03 -0.4823208E-03  0.2421336E+05  0.1387777E+05
  0.2100000E+01  0.5351283E+04  0.3492722E+04  0.1338550E-03  0.3753603E-04  0.2366612E+05  0.1643579E+05
  0.2200000E+01  0.5201820E+04  0.4011264E+04  0.1888383E-03 -0.7509887E-03  0.2297900E+05  0.1892048E+05
  0.2300000E+01  0.5031854E+04  0.4491865E+04  0.3324903E-03  0.1943886E-02  0.2219230E+05  0.2123786E+05
  0.2400000E+01  0.4850342E+04  0.4921271E+04  0.6935993E-03  0.2644211E-02  0.2134636E+05  0.2332403E+05
  0.2500000E+01  0.4663710E+04  0.5293561E+04  0.3055572E-03  0.1929343E-02  0.2047321E+05  0.2514868E+05
  0.2600000E+01  0.4480340E+04  0.5604786E+04  0.2200787E-03 -0.3239512E-04  0.1961023E+05  0.2669137E+05
  0.2700000E+01  0.4303843E+04  0.5855479E+04 -0.9183530E-05 -0.1044840E-02  0.1877685E+05  0.2795245E+05
  0.2800000E+01  0.4138461E+04  0.6051627E+04 -0.8233956E-04 -0.1840204E-02  0.1799088E+05  0.2895767E+05
  0.2900000E+01  0.3984094E+04  0.6199098E+04  0.7273410E-03  0.2769887E-02  0.1725621E+05  0.2973469E+05
  0.3000000E+01  0.3843684E+04  0.6301642E+04  0.7498264E-03  0.1659930E-02  0.1658381E+05  0.3029784E+05
  0.3100000E+01  0.3715855E+04  0.6365012E+04 -0.1074729E-02 -0.9477437E-03  0.1596941E+05  0.3067423E+05
  0.3200000E+01  0.3601685E+04  0.6396117E+04 -0.5399436E-03  0.1994431E-02  0.1541685E+05  0.3089580E+05
Zone t="Motion of body    1 in DoF   2",I=    32,F=POINT
  0.1000000E+00 -0.5811453E-04  0.1492444E-06  0.2888278E+05  0.1697346E+02 -0.1987815E-02  0.6277114E-06
  0.2000000E+00  0.4082918E-03 -0.1622364E-05  0.2936075E+05  0.1339115E+03  0.2846122E-02 -0.7972121E-06
  0.3000000E+00  0.8412202E-03  0.1452118E-04  0.2983433E+05  0.4413145E+03  0.2393723E-02  0.3159046E-04
  0.4000000E+00  0.3606081E-03 -0.1445413E-04  0.3023306E+05  0.1010792E+04  0.4553795E-03 -0.7125735E-04
  0.5000000E+00  0.6198883E-05  0.3239512E-04  0.3042934E+05  0.1887129E+04 -0.4118443E-02  0.1108646E-03
  0.6000001E+00  0.1990795E-03  0.2843142E-04  0.3038433E+05  0.3083541E+04  0.2050399E-03 -0.1162291E-03
  0.7000000E+00  0.3371920E-04 -0.6783009E-04  0.3011475E+05  0.4580398E+04 -0.3885542E-02 -0.6014109E-03
  0.8000001E+00 -0.2427101E-02 -0.7796288E-04  0.2958612E+05  0.6331473E+04 -0.1347899E-01 -0.1095533E-03
  0.9000000E+00  0.7798937E-03  0.2348423E-04  0.2883144E+05  0.8271748E+04  0.1009305E-02 -0.4848242E-03
  0.1000000E+01  0.3309250E-02  0.2174377E-03  0.2790173E+05  0.1032342E+05  0.1275730E-01 -0.7023811E-03
  0.1100000E+01 -0.2236366E-02  0.1716614E-03  0.2683270E+05  0.1241404E+05 -0.8485534E-02  0.7965565E-03
  0.1200000E+01 -0.2247492E-02 -0.1273155E-03  0.2566690E+05  0.1447579E+05 -0.1290321E-01  0.8916855E-04
  0.1300000E+01 -0.1510840E-02 -0.1621246E-04  0.2447096E+05  0.1644383E+05 -0.9092185E-02 -0.1687050E-02
  0.1400000E+01  0.1027243E-02  0.3197193E-03  0.2325816E+05  0.1828903E+05  0.2784388E-02  0.1102686E-02
  0.1500000E+01 -0.1513163E-03  0.2424717E-03  0.2206562E+05  0.1997445E+05 -0.3856977E-02  0.8163452E-03
  0.1600000E+01 -0.1841784E-02 -0.2372265E-03  0.2092577E+05  0.2147040E+05 -0.1075804E-01 -0.3079891E-02
  0.1700000E+01  0.1315510E-02  0.1311302E-03  0.1984928E+05  0.2277626E+05  0.5556275E-02  0.9570122E-03
  0.1800000E+01  0.1104143E-02  0.7033348E-04  0.1884246E+05  0.2389326E+05  0.4915926E-02  0.1085281E-02
  0.1900000E+01 -0.7531518E-03 -0.5326271E-03  0.1790769E+05  0.2483313E+05 -0.3329076E-02 -0.2259254E-02
  0.2000000E+01 -0.2179146E-03  0.1859665E-03  0.1704867E+05  0.2559882E+05  0.8478165E-03  0.2315521E-02
  0.2100000E+01  0.4155295E-04  0.7350445E-03  0.1626485E+05  0.2620864E+05 -0.6312416E-03  0.3754616E-02
  0.2200000E+01  0.3879720E-04  0.7135868E-03  0.1555426E+05  0.2667404E+05 -0.1249747E-02  0.2266884E-02
  0.2300000E+01 -0.3839576E-03 -0.5319118E-03  0.1491368E+05  0.2700399E+05 -0.1936788E-02 -0.1289368E-02
  0.2400000E+01  0.8781751E-04  0.1587868E-03  0.1433966E+05  0.2721440E+05 -0.8372465E-03  0.1692772E-03
  0.2500000E+01  0.4833221E-03  0.1487970E-02  0.1382691E+05  0.2732248E+05  0.1253891E-02  0.8592129E-02
  0.2600000E+01 -0.1916519E-03 -0.1742840E-03  0.1337210E+05  0.2733370E+05 -0.3803327E-02 -0.3941059E-02
  0.2700000E+01  0.1797853E-03  0.7123947E-03  0.1296796E+05  0.2725701E+05 -0.4037221E-03  0.2323627E-02
  0.2800000E+01 -0.6195477E-03 -0.1933813E-02  0.1261290E+05  0.2710584E+05 -0.2947535E-02 -0.1182246E-01
  0.2900000E+01  0.6453744E-03  0.1176119E-02  0.1230172E+05  0.2689776E+05  0.1673863E-02  0.7678032E-02
  0.3000000E+01  0.5396207E-03  0.9274483E-03  0.1202912E+05  0.2662185E+05  0.2359708E-02  0.1194715E-02
  0.3100000E+01 -0.2393415E-03  0.1795530E-02  0.1178962E+05  0.2628735E+05 -0.1173635E-02  0.5853176E-02
  0.3200000E+01  0.5304813E-03  0.3077984E-02  0.1158297E+05  0.2589199E+05  0.1998842E-02  0.1115441E-01
Zone t="Motion of body    1 in DoF   3",I=    32,F=POINT
  0.1000000E+00  0.2082494E+05  0.3104574E-04  0.1614839E-02  0.7377209E-06  0.9356595E+05  0.1415109E-03
  0.2000000E+00  0.2086054E+05  0.4376775E-02  0.1675189E-02  0.1422967E-04  0.9372730E+05  0.2001548E-01
  0.3000000E+00  0.2096417E+05  0.7412742E-01  0.9961922E-03  0.1758141E-04  0.9417566E+05  0.3387495E+00
  0.4000000E+00  0.2104275E+05  0.5481239E+00 -0.2990365E-02 -0.6816058E-04  0.9454252E+05  0.2506308E+01
  0.5000000E+00  0.2115607E+05  0.2569372E+01 -0.1450825E-01 -0.9706648E-03  0.9507481E+05  0.1175655E+02
  0.6000001E+00  0.2130715E+05  0.9013033E+01 -0.7318853E-02 -0.7849860E-03  0.9579400E+05  0.4127766E+02
  0.7000000E+00  0.2149049E+05  0.2584290E+02 -0.1026307E-01 -0.2136142E-02  0.9667835E+05  0.1184787E+03
  0.8000001E+00  0.2171799E+05  0.6386925E+02 -0.5071193E-01 -0.1347749E-01  0.9772413E+05  0.2931461E+03
  0.9000000E+00  0.2201886E+05  0.1406279E+03  0.8387036E-03  0.1608683E-03  0.9918099E+05  0.6463339E+03
  0.1000000E+01  0.2234430E+05  0.2823906E+03  0.2376723E-01  0.9904247E-02  0.1006850E+06  0.1299699E+04
  0.1100000E+01  0.2271819E+05  0.5248412E+03 -0.2223405E-01 -0.1220731E-01  0.1024778E+06  0.2419323E+04
  0.1200000E+01  0.2315189E+05  0.9141708E+03 -0.2359172E-01 -0.1815159E-01  0.1045265E+06  0.4221204E+04
  0.1300000E+01  0.2355997E+05  0.1503158E+04 -0.2057387E-01 -0.1728305E-01  0.1064576E+06  0.6952771E+04
  0.1400000E+01  0.2398786E+05  0.2345248E+04  0.6906986E-02  0.6938502E-02  0.1085329E+06  0.1086778E+05
  0.1500000E+01  0.2437463E+05  0.3492628E+04 -0.8826256E-03 -0.2030432E-03  0.1103969E+06  0.1621780E+05
  0.1600000E+01  0.2463411E+05  0.4979794E+04 -0.1167402E-01 -0.1730046E-01  0.1116576E+06  0.2317185E+05
  0.1700000E+01  0.2476094E+05  0.6807392E+04  0.7926155E-02  0.1391512E-01  0.1123299E+06  0.3174361E+05
  0.1800000E+01  0.2473749E+05  0.8944311E+04  0.2518230E-02  0.1056075E-02  0.1123121E+06  0.4180061E+05
  0.1900000E+01  0.2453608E+05  0.1132263E+05 -0.6014674E-02 -0.1896411E-01  0.1114601E+06  0.5303463E+05
  0.2000000E+01  0.2415972E+05  0.1384232E+05 -0.8733273E-03 -0.2040207E-02  0.1097899E+06  0.6498566E+05
  0.2100000E+01  0.2361439E+05  0.1639556E+05 -0.8015406E-04 -0.7864833E-02  0.1073076E+06  0.7715198E+05
  0.2200000E+01  0.2292871E+05  0.1887516E+05  0.5314567E-03  0.5679488E-02  0.1041598E+06  0.8902947E+05
  0.2300000E+01  0.2214402E+05  0.2118727E+05 -0.7517441E-03  0.2575874E-02  0.1005330E+06  0.1001729E+06
  0.2400000E+01  0.2130060E+05  0.2327005E+05  0.4215240E-02  0.2021074E-02  0.9660625E+05  0.1102837E+06
  0.2500000E+01  0.2042925E+05  0.2509044E+05  0.1022339E-03  0.7300258E-02  0.9253364E+05  0.1191959E+06
  0.2600000E+01  0.1956813E+05  0.2663097E+05  0.1537800E-02 -0.9734154E-02  0.8848480E+05  0.1268182E+06
  0.2700000E+01  0.1873665E+05  0.2788960E+05 -0.1601820E-02 -0.1234770E-01  0.8456219E+05  0.1331305E+06
  0.2800000E+01  0.1795258E+05  0.2889505E+05 -0.3012589E-03 -0.1668704E-01  0.8084038E+05  0.1382580E+06
  0.2900000E+01  0.1721836E+05  0.2967032E+05  0.2686402E-02  0.1322985E-01  0.7734809E+05  0.1423063E+06
  0.3000000E+01  0.1654704E+05  0.3023428E+05  0.4944960E-02  0.2309084E-03  0.7413649E+05  0.1453508E+06
  0.3100000E+01  0.1593389E+05  0.3060972E+05 -0.3600890E-02 -0.3805161E-02  0.7119291E+05  0.1474976E+06
  0.3200000E+01  0.1538257E+05  0.3083408E+05 -0.5954504E-03  0.8529782E-02  0.6852873E+05  0.1489205E+06
