VARIABLES="w (rad/s)"
"abs(F   1   1)" "angle(F   1   1)"
"abs(F   1   2)" "angle(F   1   2)"
"abs(F   1   3)" "angle(F   1   3)"
Zone t="Diffraction force - beta =   0.000 deg",I=    32,F=POINT
  0.1000000E+00  0.1047415E+04 -0.1570796E+01  0.8664444E+03 -0.3134177E+01  0.1525369E+04 -0.1570796E+01
  0.2000000E+00  0.4213575E+04 -0.1570784E+01  0.3502370E+04 -0.3113528E+01  0.6129574E+04 -0.1570783E+01
  0.3000000E+00  0.9459669E+04 -0.1570659E+01  0.7845682E+04 -0.3082757E+01  0.1371433E+05 -0.1570653E+01
  0.4000000E+00  0.1684402E+05 -0.1570052E+01  0.1370742E+05 -0.3045823E+01  0.2428945E+05 -0.1570019E+01
  0.5000000E+00  0.2635049E+05 -0.1568084E+01  0.2072371E+05 -0.3006555E+01  0.3775545E+05 -0.1567958E+01
  0.6000001E+00  0.3804439E+05 -0.1563126E+01  0.2841406E+05 -0.2968425E+01  0.5410139E+05 -0.1562756E+01
  0.7000000E+00  0.5239428E+05 -0.1552714E+01  0.3626588E+05 -0.2934529E+01  0.7375364E+05 -0.1551786E+01
  0.8000001E+00  0.6928365E+05 -0.1533407E+01  0.4380572E+05 -0.2907394E+01  0.9654711E+05 -0.1531402E+01
  0.9000000E+00  0.8919462E+05 -0.1501045E+01  0.5056534E+05 -0.2888674E+01  0.1227335E+06 -0.1497098E+01
  0.1000000E+01  0.1121990E+06 -0.1451119E+01  0.5630307E+05 -0.2880239E+01  0.1523677E+06 -0.1444044E+01
  0.1100000E+01  0.1383026E+06 -0.1378956E+01  0.6075761E+05 -0.2882940E+01  0.1848655E+06 -0.1366996E+01
  0.1200000E+01  0.1652439E+06 -0.1279566E+01  0.6392371E+05 -0.2897940E+01  0.2173813E+06 -0.1260543E+01
  0.1300000E+01  0.1921989E+06 -0.1152310E+01  0.6579809E+05 -0.2926397E+01  0.2482747E+06 -0.1123258E+01
  0.1400000E+01  0.2146176E+06 -0.9977585E+00  0.6646453E+05 -0.2969214E+01  0.2719528E+06 -0.9550191E+00
  0.1500000E+01  0.2287378E+06 -0.8230086E+00  0.6611680E+05 -0.3027667E+01  0.2839821E+06 -0.7617344E+00
  0.1600000E+01  0.2316212E+06 -0.6386766E+00  0.6499655E+05 -0.3103292E+01  0.2818195E+06 -0.5530000E+00
  0.1700000E+01  0.2229281E+06 -0.4555741E+00  0.6339724E+05  0.3086292E+01  0.2663233E+06 -0.3382805E+00
  0.1800000E+01  0.2052387E+06 -0.2817088E+00  0.6165847E+05  0.2974336E+01  0.2419060E+06 -0.1244725E+00
  0.1900000E+01  0.1819422E+06 -0.1190037E+00  0.6019426E+05  0.2845902E+01  0.2134196E+06  0.8748288E-01
  0.2000000E+01  0.1562692E+06  0.3402260E-01  0.5930373E+05  0.2705337E+01  0.1850875E+06  0.2988113E+00
  0.2100000E+01  0.1299818E+06  0.1823254E+00  0.5913017E+05  0.2559912E+01  0.1591045E+06  0.5106685E+00
  0.2200000E+01  0.1046609E+06  0.3339171E+00  0.5969399E+05  0.2417989E+01  0.1367309E+06  0.7245946E+00
  0.2300000E+01  0.8110177E+05  0.4997872E+00  0.6076298E+05  0.2285687E+01  0.1180207E+06  0.9373410E+00
  0.2400000E+01  0.5983767E+05  0.7009521E+00  0.6230358E+05  0.2166176E+01  0.1022570E+06  0.1143952E+01
  0.2500000E+01  0.4174091E+05  0.9792972E+00  0.6582560E+05  0.2053650E+01  0.8854928E+05  0.1340959E+01
  0.2600000E+01  0.2825391E+05  0.1426492E+01  0.4641878E+05  0.2036211E+01  0.7579838E+05  0.1526666E+01
  0.2700000E+01  0.2265864E+05  0.2117810E+01  0.5428442E+05  0.1913147E+01  0.6324127E+05  0.1704938E+01
  0.2800000E+01  0.2600893E+05  0.2764026E+01  0.5222963E+05  0.1834771E+01  0.5057523E+05  0.1886084E+01
  0.2900000E+01  0.3311258E+05 -0.3119984E+01  0.4799641E+05  0.1760936E+01  0.3783642E+05  0.2094140E+01
  0.3000000E+01  0.4023215E+05 -0.2864772E+01  0.4225699E+05  0.1682193E+01  0.2566664E+05  0.2390245E+01
  0.3100000E+01  0.4583970E+05 -0.2669489E+01  0.3538214E+05  0.1586699E+01  0.1580842E+05  0.2940281E+01
  0.3200000E+01  0.4765731E+05 -0.2451718E+01  0.2789278E+05  0.1452947E+01  0.1022267E+05 -0.2250419E+01
