VARIABLES="w (rad/s)"
"abs(F   1   1)" "angle(F   1   1)"
"abs(F   1   2)" "angle(F   1   2)"
"abs(F   1   3)" "angle(F   1   3)"
Zone t="Diffraction force - beta =   0.000 deg",I=    32,F=POINT
  0.1000000E+00  0.1605468E+04 -0.1570795E+01  0.5024867E+06 -0.2624711E-04  0.5746691E+04 -0.1570795E+01
  0.2000000E+00  0.6398853E+04 -0.1570793E+01  0.4955808E+06 -0.4141196E-03  0.2291042E+05 -0.1570794E+01
  0.3000000E+00  0.1428395E+05 -0.1570767E+01  0.4839650E+06 -0.2047541E-02  0.5117132E+05 -0.1570767E+01
  0.4000000E+00  0.2512673E+05 -0.1570637E+01  0.4677929E+06 -0.6256777E-02  0.9009159E+05 -0.1570637E+01
  0.5000000E+00  0.3871078E+05 -0.1570215E+01  0.4475468E+06 -0.1462190E-01  0.1389388E+06 -0.1570214E+01
  0.6000001E+00  0.5477224E+05 -0.1569155E+01  0.4239982E+06 -0.2875004E-01  0.1968188E+06 -0.1569155E+01
  0.7000000E+00  0.7309244E+05 -0.1566934E+01  0.3981078E+06 -0.5008331E-01  0.2630336E+06 -0.1566934E+01
  0.8000001E+00  0.9310706E+05 -0.1562874E+01  0.3708264E+06 -0.7976256E-01  0.3355731E+06 -0.1562875E+01
  0.9000000E+00  0.1144264E+06 -0.1556247E+01  0.3431583E+06 -0.1185949E+00  0.4131077E+06 -0.1556248E+01
  0.1000000E+01  0.1362418E+06 -0.1546506E+01  0.3157588E+06 -0.1670745E+00  0.4927575E+06 -0.1546507E+01
  0.1100000E+01  0.1576981E+06 -0.1533545E+01  0.2893399E+06 -0.2254586E+00  0.5714588E+06 -0.1533548E+01
  0.1200000E+01  0.1772615E+06 -0.1518040E+01  0.2641380E+06 -0.2937253E+00  0.6435895E+06 -0.1518039E+01
  0.1300000E+01  0.1938355E+06 -0.1502075E+01  0.2404792E+06 -0.3719755E+00  0.7052048E+06 -0.1502072E+01
  0.1400000E+01  0.2060610E+06 -0.1488860E+01  0.2185012E+06 -0.4600586E+00  0.7512212E+06 -0.1488857E+01
  0.1500000E+01  0.2131193E+06 -0.1482617E+01  0.1982458E+06 -0.5578625E+00  0.7785581E+06 -0.1482614E+01
  0.1600000E+01  0.2148420E+06 -0.1487783E+01  0.1796819E+06 -0.6652828E+00  0.7864791E+06 -0.1487780E+01
  0.1700000E+01  0.2118060E+06 -0.1508119E+01  0.1627325E+06 -0.7822169E+00  0.7769573E+06 -0.1508116E+01
  0.1800000E+01  0.2050412E+06 -0.1546190E+01  0.1473111E+06 -0.9085957E+00  0.7536648E+06 -0.1546189E+01
  0.1900000E+01  0.1957159E+06 -0.1603228E+01  0.1333130E+06 -0.1044500E+01  0.7208097E+06 -0.1603235E+01
  0.2000000E+01  0.1848973E+06 -0.1679379E+01  0.1206259E+06 -0.1189947E+01  0.6822741E+06 -0.1679399E+01
  0.2100000E+01  0.1734166E+06 -0.1774043E+01  0.1091215E+06 -0.1345166E+01  0.6411076E+06 -0.1774084E+01
  0.2200000E+01  0.1618697E+06 -0.1886243E+01  0.9870397E+05 -0.1510672E+01  0.5994959E+06 -0.1886324E+01
  0.2300000E+01  0.1506195E+06 -0.2014873E+01  0.8920330E+05 -0.1687448E+01  0.5588052E+06 -0.2015011E+01
  0.2400000E+01  0.1398836E+06 -0.2158880E+01  0.8035327E+05 -0.1878963E+01  0.5198627E+06 -0.2159076E+01
  0.2500000E+01  0.1298026E+06 -0.2317330E+01  0.7114649E+05 -0.2104267E+01  0.4832036E+06 -0.2317604E+01
  0.2600000E+01  0.1203865E+06 -0.2489415E+01  0.7978853E+05 -0.1888135E+01  0.4488932E+06 -0.2489794E+01
  0.2700000E+01  0.1116255E+06 -0.2674699E+01  0.6390243E+05 -0.2398913E+01  0.4169170E+06 -0.2675139E+01
  0.2800000E+01  0.1034938E+06 -0.2872992E+01  0.5756061E+05 -0.2637418E+01  0.3872011E+06 -0.2873480E+01
  0.2900000E+01  0.9598394E+05 -0.3084887E+01  0.5235843E+05 -0.2870090E+01  0.3597458E+06 -0.3085425E+01
  0.3000000E+01  0.8886341E+05  0.2969524E+01  0.4781613E+05 -0.3106695E+01  0.3337587E+06  0.2969001E+01
  0.3100000E+01  0.8109585E+05  0.2699802E+01  0.4374430E+05  0.2933739E+01  0.3058216E+06  0.2699349E+01
  0.3200000E+01  0.8202972E+05  0.2657457E+01  0.4002529E+05  0.2683497E+01  0.3059098E+06  0.2657374E+01
