VARIABLES="w (rad/s)"
"A   1   1" "B   1   1"
"A   1   2" "B   1   2"
"A   1   3" "B   1   3"
Zone t="Motion of body    1 in DoF   1",I=    32,F=POINT
  0.1000000E+00  0.5283858E+05  0.6867255E-03  0.4623607E-02  0.5791739E-05  0.1861441E+06  0.2460145E-02
  0.2000000E+00  0.5323400E+05  0.8574566E-01 -0.1215935E-02 -0.7241598E-05  0.1875234E+06  0.3070068E+00
  0.3000000E+00  0.5359975E+05  0.1442380E+01 -0.9208122E-02 -0.2682660E-03  0.1888518E+06  0.5167373E+01
  0.4000000E+00  0.5422880E+05  0.1057740E+02  0.2412796E-02  0.1150391E-03  0.1911717E+06  0.3792499E+02
  0.5000000E+00  0.5502231E+05  0.4903282E+02 -0.1825929E-01 -0.2463841E-02  0.1940726E+06  0.1759856E+03
  0.6000001E+00  0.5604809E+05  0.1696914E+03  0.8169212E-02  0.1695362E-02  0.1978070E+06  0.6097668E+03
  0.7000000E+00  0.5759882E+05  0.4793177E+03  0.8699468E-02  0.1864430E-02  0.2035083E+06  0.1724875E+04
  0.8000001E+00  0.5924511E+05  0.1161261E+04 -0.7387310E-01 -0.3422707E-01  0.2095274E+06  0.4185318E+04
  0.9000000E+00  0.6128713E+05  0.2497231E+04  0.3405412E-03  0.9958856E-03  0.2170184E+06  0.9015483E+04
  0.1000000E+01  0.6337979E+05  0.4853718E+04 -0.2376199E-02 -0.4801903E-02  0.2247248E+06  0.1755434E+05
  0.1100000E+01  0.6545788E+05  0.8646346E+04 -0.1363212E-01 -0.1383448E-01  0.2324354E+06  0.3133051E+05
  0.1200000E+01  0.6672920E+05  0.1421274E+05  0.6342729E-02  0.3184356E-02  0.2371992E+06  0.5160317E+05
  0.1300000E+01  0.6711262E+05  0.2161567E+05 -0.2585925E-02 -0.1292667E-01  0.2388023E+06  0.7864387E+05
  0.1400000E+01  0.6614394E+05  0.3052602E+05 -0.3535066E-02 -0.8237824E-02  0.2354675E+06  0.1112903E+06
  0.1500000E+01  0.6371109E+05  0.4017427E+05  0.8893013E-04  0.8094758E-02  0.2267715E+06  0.1467695E+06
  0.1600000E+01  0.5997557E+05  0.4955850E+05 -0.4189759E-02 -0.7808000E-02  0.2132753E+06  0.1814306E+06
  0.1700000E+01  0.5538511E+05  0.5778606E+05 -0.3481332E-02 -0.3374845E-02  0.1965881E+06  0.2119889E+06
  0.1800000E+01  0.5045712E+05  0.6429013E+05 -0.8718967E-02 -0.3312448E-01  0.1785925E+06  0.2363344E+06
  0.1900000E+01  0.4562643E+05  0.6890021E+05  0.4140390E-02 -0.5738109E-02  0.1608798E+06  0.2537912E+06
  0.2000000E+01  0.4119508E+05  0.7172534E+05 -0.7830799E-02 -0.1887408E-01  0.1445698E+06  0.2647173E+06
  0.2100000E+01  0.3731442E+05  0.7303512E+05  0.6268876E-02 -0.1451224E-02  0.1302323E+06  0.2700735E+06
  0.2200000E+01  0.3401597E+05  0.7315385E+05 -0.6742910E-03  0.8200705E-02  0.1179979E+06  0.2710177E+06
  0.2300000E+01  0.3128394E+05  0.7236360E+05 -0.2380558E-02 -0.1508969E-01  0.1078231E+06  0.2685780E+06
  0.2400000E+01  0.2906228E+05  0.7090739E+05 -0.2422929E-03 -0.1671329E-01  0.9951072E+05  0.2636428E+06
  0.2500000E+01  0.2728076E+05  0.6900270E+05  0.1140976E-02 -0.5444795E-02  0.9281072E+05  0.2569973E+06
  0.2600000E+01  0.2587469E+05  0.6676694E+05  0.1554489E-02 -0.1505658E-02  0.8749508E+05  0.2490845E+06
  0.2700000E+01  0.2478376E+05  0.6430538E+05 -0.5984218E-02  0.2727032E-02  0.8334353E+05  0.2402907E+06
  0.2800000E+01  0.2395872E+05  0.6166982E+05  0.1182888E-01  0.6366655E-02  0.8018230E+05  0.2308125E+06
  0.2900000E+01  0.2335856E+05  0.5889725E+05  0.5262884E-02  0.2876639E-02  0.7786870E+05  0.2207922E+06
  0.3000000E+01  0.2298108E+05  0.5572020E+05 -0.1299461E-02 -0.4272863E-02  0.7640971E+05  0.2092808E+06
  0.3100000E+01  0.2297915E+05  0.5035857E+05 -0.3005766E-02  0.1335330E-03  0.7648188E+05  0.1898723E+06
  0.3200000E+01  0.2043361E+05  0.6113955E+05 -0.2350286E-02  0.1516536E-01  0.6619838E+05  0.2279994E+06
Zone t="Motion of body    1 in DoF   2",I=    32,F=POINT
  0.1000000E+00  0.1122952E-02  0.3718771E-05  0.1186123E+06  0.1318580E+03 -0.6258488E-04  0.1051743E-04
  0.2000000E+00 -0.1947880E-02  0.1876801E-04  0.1215348E+06  0.1026061E+04  0.3128052E-02  0.2659112E-04
  0.3000000E+00 -0.8279482E-02 -0.2677739E-04  0.1235862E+06  0.3302451E+04 -0.1331091E-01  0.3768206E-03
  0.4000000E+00  0.9715557E-04 -0.1233816E-04  0.1241419E+06  0.7313457E+04  0.2212524E-02  0.3383160E-03
  0.5000000E+00 -0.4775047E-02 -0.6884336E-04  0.1227389E+06  0.1307403E+05 -0.1036549E-01 -0.9477735E-03
  0.6000001E+00  0.2470016E-02 -0.5089045E-03  0.1193285E+06  0.2027573E+05  0.9146530E-02 -0.1524091E-02
  0.7000000E+00  0.4796982E-02  0.5426407E-03  0.1141826E+06  0.2838344E+05  0.1143932E-01  0.9751320E-04
  0.8000001E+00 -0.1748979E-01  0.7512569E-03  0.1078130E+06  0.3675898E+05 -0.8034944E-01  0.5107880E-02
  0.9000000E+00  0.2742344E-02  0.2145767E-04  0.1006331E+06  0.4481155E+05  0.7298258E-02 -0.1522541E-02
  0.1000000E+01  0.1179695E-02 -0.1476288E-02  0.9325908E+05  0.5204214E+05  0.3919601E-02 -0.7271767E-04
  0.1100000E+01 -0.6328929E-02  0.1596212E-02  0.8598853E+05  0.5814639E+05 -0.2348553E-01  0.1117349E-01
  0.1200000E+01  0.8085568E-02  0.1014233E-02  0.7918740E+05  0.6290251E+05  0.2535542E-01  0.4493713E-02
  0.1300000E+01 -0.1251514E-02 -0.4909039E-03  0.7303833E+05  0.6629660E+05 -0.1653891E-02 -0.2073050E-02
  0.1400000E+01 -0.1256125E-02  0.1107454E-02  0.6761242E+05  0.6836713E+05 -0.6531988E-02  0.2422094E-02
  0.1500000E+01  0.5941391E-03  0.1866579E-02  0.6294980E+05  0.6922454E+05  0.2441088E-02  0.4288673E-02
  0.1600000E+01 -0.2400577E-02  0.5557537E-03  0.5905068E+05  0.6901174E+05 -0.4861355E-02 -0.5998135E-02
  0.1700000E+01 -0.4623638E-02 -0.4868507E-02  0.5587025E+05  0.6788750E+05 -0.1371243E-01 -0.1205873E-01
  0.1800000E+01 -0.1303011E-01 -0.1259708E-01  0.5333812E+05  0.6602077E+05 -0.4447990E-01 -0.4282832E-01
  0.1900000E+01  0.3529850E-02  0.3864765E-03  0.5139095E+05  0.6357859E+05  0.1337102E-01  0.1750469E-02
  0.2000000E+01 -0.6307364E-02 -0.7287860E-02  0.4994571E+05  0.6069502E+05 -0.2056122E-01 -0.2953649E-01
  0.2100000E+01  0.1025881E-02  0.2408028E-04  0.4892497E+05  0.5748361E+05  0.5212511E-02  0.4792690E-02
  0.2200000E+01  0.6080107E-02  0.1276124E-01  0.4825925E+05  0.5403717E+05  0.2009175E-01  0.4306066E-01
  0.2300000E+01 -0.4335901E-02  0.6018877E-03  0.4787718E+05  0.5033724E+05 -0.1212120E-01  0.6220698E-02
  0.2400000E+01 -0.3483693E-02 -0.6379843E-02  0.4771170E+05  0.4614366E+05 -0.1120726E-01 -0.2153575E-01
  0.2500000E+01  0.4466629E-02 -0.8280516E-02  0.4765795E+05  0.3984363E+05  0.1713142E-01 -0.1870751E-01
  0.2600000E+01  0.1091554E-01  0.2488089E-01  0.4360264E+05  0.7109043E+05  0.3327370E-01  0.8268046E-01
  0.2700000E+01 -0.1195060E-01 -0.3228748E-01  0.4807569E+05  0.4379792E+05 -0.4000452E-01 -0.1090412E+00
  0.2800000E+01  0.7788113E-02  0.1469380E-01  0.4849979E+05  0.3895611E+05  0.2243962E-01  0.4889643E-01
  0.2900000E+01  0.2703502E-02  0.1905501E-02  0.4891392E+05  0.3546434E+05  0.9496623E-02  0.7600069E-02
  0.3000000E+01 -0.3779729E-03 -0.3901422E-02  0.4937807E+05  0.3245899E+05  0.2129873E-04 -0.1044768E-01
  0.3100000E+01 -0.3440919E-02 -0.7116258E-02  0.4988644E+05  0.2978118E+05 -0.1016248E-01 -0.2494282E-01
  0.3200000E+01  0.5626678E-03  0.5438924E-03  0.5041255E+05  0.2732590E+05  0.8937716E-03  0.1529813E-02
Zone t="Motion of body    1 in DoF   3",I=    32,F=POINT
  0.1000000E+00  0.1861950E+06  0.2457856E-02  0.2498105E-02  0.8774196E-05  0.6724326E+06  0.8789901E-02
  0.2000000E+00  0.1875631E+06  0.3070910E+00 -0.9941161E-02 -0.1160073E-03  0.6772156E+06  0.1099525E+01
  0.3000000E+00  0.1888874E+06  0.5168872E+01 -0.5374650E-01 -0.1480822E-02  0.6820213E+06  0.1851773E+02
  0.4000000E+00  0.1912118E+06  0.3793350E+02  0.1941852E-01  0.8705154E-03  0.6905987E+06  0.1360098E+03
  0.5000000E+00  0.1941117E+06  0.1760235E+03 -0.5281025E-01 -0.7684594E-02  0.7011976E+06  0.6317714E+03
  0.6000001E+00  0.1978418E+06  0.6099160E+03  0.2660711E-01  0.5737849E-02  0.7147775E+06  0.2191667E+04
  0.7000000E+00  0.2035493E+06  0.1725156E+04  0.2919614E-01  0.7750545E-02  0.7357694E+06  0.6208171E+04
  0.8000001E+00  0.2095657E+06  0.4185960E+04 -0.2708992E+00 -0.1224955E+00  0.7577666E+06  0.1508667E+05
  0.9000000E+00  0.2170568E+06  0.9017002E+04 -0.1214809E-02  0.1654848E-02  0.7852450E+06  0.3255310E+05
  0.1000000E+01  0.2247587E+06  0.1755650E+05 -0.1949632E-01 -0.1636942E-01  0.8136059E+06  0.6349624E+05
  0.1100000E+01  0.2324736E+06  0.3133346E+05 -0.4854722E-01 -0.4880348E-01  0.8422331E+06  0.1135382E+06
  0.1200000E+01  0.2372281E+06  0.5161112E+05  0.1492848E-01  0.2039403E-02  0.8600274E+06  0.1873887E+06
  0.1300000E+01  0.2388283E+06  0.7865184E+05 -0.1469337E-01 -0.5267638E-01  0.8666232E+06  0.2861583E+06
  0.1400000E+01  0.2354913E+06  0.1113044E+06 -0.9666000E-02 -0.4777521E-01  0.8551806E+06  0.4057898E+06
  0.1500000E+01  0.2267889E+06  0.1467870E+06  0.3707011E-02  0.1362854E-01  0.8240962E+06  0.5362581E+06
  0.1600000E+01  0.2132855E+06  0.1814480E+06 -0.8990765E-02 -0.2621293E-01  0.7753171E+06  0.6642668E+06
  0.1700000E+01  0.1965929E+06  0.2120039E+06 -0.2550686E-01 -0.2722466E-01  0.7146571E+06  0.7777362E+06
  0.1800000E+01  0.1785936E+06  0.2363444E+06 -0.2808799E-01 -0.1316775E+00  0.6489328E+06  0.8688071E+06
  0.1900000E+01  0.1608790E+06  0.2537908E+06  0.8322628E-02 -0.2229631E-01  0.5839994E+06  0.9348179E+06
  0.2000000E+01  0.1445673E+06  0.2647100E+06 -0.1818937E-01 -0.6786656E-01  0.5239719E+06  0.9769522E+06
  0.2100000E+01  0.1302281E+06  0.2700583E+06  0.1207255E-01 -0.4159570E-02  0.4709981E+06  0.9986059E+06
  0.2200000E+01  0.1179909E+06  0.2709898E+06  0.1753077E-01  0.4006624E-01  0.4256272E+06  0.1003928E+07
  0.2300000E+01  0.1078164E+06  0.2685393E+06 -0.7997985E-02 -0.5102479E-01  0.3877454E+06  0.9966538E+06
  0.2400000E+01  0.9950414E+05  0.2635933E+06  0.2303632E-02 -0.6360197E-01  0.3566526E+06  0.9800169E+06
  0.2500000E+01  0.9280003E+05  0.2569341E+06  0.3156316E-02 -0.1431340E-01  0.3314623E+06  0.9568896E+06
  0.2600000E+01  0.8748053E+05  0.2490008E+06 -0.8596136E-03 -0.3898919E-02  0.3113688E+06  0.9288959E+06
  0.2700000E+01  0.8332557E+05  0.2401928E+06 -0.1757518E-01  0.4068255E-02  0.2955719E+06  0.8974731E+06
  0.2800000E+01  0.8015639E+05  0.2306844E+06  0.2519718E-01  0.1484507E-01  0.2834500E+06  0.8633181E+06
  0.2900000E+01  0.7782962E+05  0.2206178E+06  0.1232840E-01  0.1433983E-01  0.2744996E+06  0.8270158E+06
  0.3000000E+01  0.7634678E+05  0.2090343E+06 -0.7847309E-02 -0.3051624E-01  0.2687770E+06  0.7851012E+06
  0.3100000E+01  0.7631252E+05  0.1894282E+06 -0.6999816E-02 -0.4490496E-01  0.2689328E+06  0.7142019E+06
  0.3200000E+01  0.6651255E+05  0.2286822E+06 -0.4144907E-02  0.1857316E-01  0.2295279E+06  0.8527877E+06
