VARIABLES="w (rad/s)"
"abs(F   1   1)" "angle(F   1   1)"
"abs(F   1   2)" "angle(F   1   2)"
"abs(F   1   3)" "angle(F   1   3)"
Zone t="Diffraction force - beta =   0.000 deg",I=    32,F=POINT
  0.1000000E+00  0.3398945E+04 -0.1570797E+01  0.7639438E+04 -0.7649023E-06  0.3388965E+04  0.1570793E+01
  0.2000000E+00  0.1350874E+05 -0.1570791E+01  0.3321847E+04 -0.3141590E+01  0.1349255E+05  0.1570803E+01
  0.3000000E+00  0.2989327E+05 -0.1570735E+01  0.2117329E+05 -0.3141508E+01  0.2992103E+05  0.1570858E+01
  0.4000000E+00  0.5193996E+05 -0.1570467E+01  0.4530480E+05 -0.3141036E+01  0.5214898E+05  0.1571126E+01
  0.5000000E+00  0.7887131E+05 -0.1569615E+01  0.7500240E+05 -0.3139421E+01  0.7949436E+05  0.1571977E+01
  0.6000001E+00  0.1098048E+06 -0.1567514E+01  0.1094858E+06 -0.3135285E+01  0.1111745E+06  0.1574078E+01
  0.7000000E+00  0.1437932E+06 -0.1563161E+01  0.1479472E+06 -0.3126539E+01  0.1463394E+06  0.1578431E+01
  0.8000001E+00  0.1799034E+06 -0.1555222E+01  0.1894160E+06 -0.3110419E+01  0.1841211E+06  0.1586370E+01
  0.9000000E+00  0.2170440E+06 -0.1542073E+01  0.2325370E+06 -0.3083733E+01  0.2234137E+06  0.1599519E+01
  0.1000000E+01  0.2540965E+06 -0.1521893E+01  0.2752030E+06 -0.3043386E+01  0.2630587E+06  0.1619699E+01
  0.1100000E+01  0.2895759E+06 -0.1492774E+01  0.3141106E+06 -0.2987410E+01  0.3013401E+06  0.1648815E+01
  0.1200000E+01  0.3219485E+06 -0.1452769E+01  0.3448867E+06 -0.2916132E+01  0.3363964E+06  0.1688824E+01
  0.1300000E+01  0.3490713E+06 -0.1400339E+01  0.3629051E+06 -0.2833433E+01  0.3655945E+06  0.1741265E+01
  0.1400000E+01  0.3686476E+06 -0.1334427E+01  0.3652057E+06 -0.2746332E+01  0.3858545E+06  0.1807189E+01
  0.1500000E+01  0.3782804E+06 -0.1255026E+01  0.3519715E+06 -0.2663209E+01  0.3939848E+06  0.1886615E+01
  0.1600000E+01  0.3759298E+06 -0.1163462E+01  0.3265178E+06 -0.2590698E+01  0.3872162E+06  0.1978207E+01
  0.1700000E+01  0.3609094E+06 -0.1062346E+01  0.2934694E+06 -0.2532150E+01  0.3642318E+06  0.2079360E+01
  0.1800000E+01  0.3340100E+06 -0.9556934E+00  0.2570517E+06 -0.2487758E+01  0.3257628E+06  0.2186047E+01
  0.1900000E+01  0.2978550E+06 -0.8479450E+00  0.2203107E+06 -0.2455683E+01  0.2750421E+06  0.2293750E+01
  0.2000000E+01  0.2562159E+06 -0.7429630E+00  0.1851297E+06 -0.2433511E+01  0.2168532E+06  0.2398526E+01
  0.2100000E+01  0.2130008E+06 -0.6435385E+00  0.1525658E+06 -0.2418671E+01  0.1563101E+06  0.2497400E+01
  0.2200000E+01  0.1714724E+06 -0.5510083E+00  0.1231428E+06 -0.2409425E+01  0.9788380E+05  0.2588235E+01
  0.2300000E+01  0.1338853E+06 -0.4658864E+00  0.9713466E+05 -0.2404458E+01  0.4511076E+05  0.2667090E+01
  0.2400000E+01  0.1014729E+06 -0.3881069E+00  0.7462659E+05 -0.2402540E+01  0.5527565E+03  0.1365565E+01
  0.2500000E+01  0.7464983E+05 -0.3176071E+00  0.5558400E+05 -0.2403764E+01  0.3607536E+05 -0.2983022E+00
  0.2600000E+01  0.5333893E+05 -0.2531714E+00  0.3985084E+05 -0.2407867E+01  0.6316936E+05 -0.2419558E+00
  0.2700000E+01  0.3698975E+05 -0.1935106E+00  0.2721536E+05 -0.2414913E+01  0.8185461E+05 -0.1878882E+00
  0.2800000E+01  0.2492340E+05 -0.1368146E+00  0.1733785E+05 -0.2425436E+01  0.9300635E+05 -0.1403384E+00
  0.2900000E+01  0.1634339E+05 -0.8086378E-01  0.9910141E+04 -0.2440004E+01  0.9780379E+05 -0.9915692E-01
  0.3000000E+01  0.1053310E+05 -0.2204650E-01  0.4523936E+04 -0.2456589E+01  0.9747072E+05 -0.6594139E-01
  0.3100000E+01  0.6744427E+04  0.4671469E-01  0.7967518E+03 -0.2453248E+01  0.9357528E+05 -0.4030708E-01
  0.3200000E+01  0.4350916E+04  0.1369226E+00  0.1645143E+04  0.6363447E+00  0.8743216E+05 -0.2189311E-01
