VARIABLES="w (rad/s)"
"A   1   1" "B   1   1"
"A   1   2" "B   1   2"
"A   1   3" "B   1   3"
Zone t="Motion of body    1 in DoF   1",I=    32,F=POINT
  0.1000000E+00  0.1253638E+06  0.2872746E-02 -0.4418194E-03 -0.3174174E-06 -0.1235072E+06 -0.2879806E-02
  0.2000000E+00  0.1271819E+06  0.3833766E+00 -0.1653656E-02 -0.4479004E-05 -0.1254522E+06 -0.3829850E+00
  0.3000000E+00  0.1281738E+06  0.6341071E+01 -0.5781849E-02 -0.2149079E-04 -0.1264044E+06 -0.6346876E+01
  0.4000000E+00  0.1296641E+06  0.4538378E+02 -0.3483817E-02  0.1929673E-04 -0.1278942E+06 -0.4556690E+02
  0.5000000E+00  0.1318328E+06  0.2043900E+03  0.4362702E-02  0.2227376E-03 -0.1300589E+06 -0.2060052E+03
  0.6000001E+00  0.1347868E+06  0.6845244E+03 -0.3609657E-02 -0.7458187E-03 -0.1330055E+06 -0.6930602E+03
  0.7000000E+00  0.1385511E+06  0.1863956E+04  0.7940105E-02  0.4384547E-02 -0.1367912E+06 -0.1896959E+04
  0.8000001E+00  0.1431649E+06  0.4353938E+04 -0.2438292E-01  0.6045988E-02 -0.1414625E+06 -0.4456029E+04
  0.9000000E+00  0.1482428E+06  0.9021367E+04  0.1105004E-01  0.5953491E-02 -0.1465804E+06 -0.9286066E+04
  0.1000000E+01  0.1533213E+06  0.1694963E+05  0.4400611E-02  0.1294452E-01 -0.1517053E+06 -0.1754779E+05
  0.1100000E+01  0.1573742E+06  0.2927869E+05  0.9845061E-02 -0.1067416E-01 -0.1556640E+06 -0.3046709E+05
  0.1200000E+01  0.1593636E+06  0.4697254E+05  0.8674462E-03  0.3197855E-01 -0.1573322E+06 -0.4908271E+05
  0.1300000E+01  0.1576475E+06  0.7016840E+05 -0.1207609E-01 -0.1919547E-01 -0.1549004E+06 -0.7349869E+05
  0.1400000E+01  0.1508455E+06  0.9768355E+05 -0.7557784E-02  0.4375413E-02 -0.1467467E+06 -0.1022594E+06
  0.1500000E+01  0.1381332E+06  0.1263838E+06 -0.1108289E-01 -0.2292660E-01 -0.1319966E+06 -0.1316582E+06
  0.1600000E+01  0.1199137E+06  0.1512959E+06 -0.5514175E-02 -0.1058397E-01 -0.1112733E+06 -0.1558761E+06
  0.1700000E+01  0.9832630E+05  0.1670012E+06  0.9068390E-02  0.5007267E-02 -0.8715546E+05 -0.1685662E+06
  0.1800000E+01  0.7668816E+05  0.1694350E+06  0.2442400E-02 -0.1667329E-01 -0.6371028E+05 -0.1652544E+06
  0.1900000E+01  0.5851257E+05  0.1580489E+06  0.9404986E-04 -0.8734278E-03 -0.4513725E+05 -0.1458523E+06
  0.2000000E+01  0.4611947E+05  0.1359301E+06  0.6284237E-02 -0.8037423E-02 -0.3407673E+05 -0.1148011E+06
  0.2100000E+01  0.4005484E+05  0.1082321E+06 -0.5080700E-02  0.1230743E-03 -0.3089711E+05 -0.7894586E+05
  0.2200000E+01  0.3938107E+05  0.8010795E+05 -0.3639026E-02 -0.1993038E-02 -0.3411427E+05 -0.4489097E+05
  0.2300000E+01  0.4242880E+05  0.5529738E+05 -0.1169858E-01  0.3041942E-02 -0.4134317E+05 -0.1736459E+05
  0.2400000E+01  0.4748793E+05  0.3566301E+05 -0.1769761E-02  0.9657502E-02 -0.5020964E+05  0.1681068E+04
  0.2500000E+01  0.5320500E+05  0.2149354E+05 -0.6634998E-02 -0.8165650E-04 -0.5891361E+05  0.1249866E+05
  0.2600000E+01  0.5867876E+05  0.1212342E+05 -0.1144409E-02 -0.9325312E-02 -0.6634073E+05  0.1672062E+05
  0.2700000E+01  0.6344854E+05  0.6441087E+04  0.4275375E-02 -0.5190249E-02 -0.7208377E+05  0.1651748E+05
  0.2800000E+01  0.6737938E+05  0.3280678E+04  0.5504404E-02  0.1149229E-03 -0.7616759E+05  0.1396517E+05
  0.2900000E+01  0.7053068E+05  0.1663648E+04  0.9020279E-02 -0.4652973E-02 -0.7891590E+05  0.1062681E+05
  0.3000000E+01  0.7302315E+05  0.9051534E+03 -0.1892487E-02 -0.3051507E-02 -0.8068324E+05  0.7501692E+04
  0.3100000E+01  0.7499894E+05  0.5369319E+03  0.9769009E-03 -0.2799474E-02 -0.8183473E+05  0.5073962E+04
  0.3200000E+01  0.7660756E+05  0.3349074E+03 -0.6453693E-03 -0.3008449E-02 -0.8265790E+05  0.3442710E+04
Zone t="Motion of body    1 in DoF   2",I=    32,F=POINT
  0.1000000E+00  0.1773804E-01  0.3793466E-05  0.1572602E+06  0.2996345E-01 -0.1471281E-01 -0.6254413E-05
  0.2000000E+00  0.9553730E-02  0.8707467E-04  0.1570119E+06  0.4808234E-01 -0.5862713E-02 -0.1108120E-03
  0.3000000E+00  0.8492072E-02  0.1099045E-03  0.1587842E+06  0.6341489E+01 -0.4885991E-02 -0.1227632E-03
  0.4000000E+00  0.1029611E-01  0.1379102E-03  0.1615853E+06  0.6862249E+02 -0.6275177E-02  0.6633997E-04
  0.5000000E+00  0.1074266E-01  0.8440018E-04  0.1657323E+06  0.3668949E+03 -0.1643372E-01  0.6362200E-03
  0.6000001E+00  0.5966822E-02 -0.1270473E-03  0.1714779E+06  0.1349982E+04  0.1853307E-02 -0.9166002E-03
  0.7000000E+00  0.1021862E-01  0.2461076E-03  0.1790080E+06  0.3912753E+04 -0.1250131E-01 -0.2283096E-02
  0.8000001E+00 -0.2273321E-01 -0.1825094E-02  0.1880650E+06  0.9572216E+04  0.2445221E-01  0.2378464E-02
  0.9000000E+00  0.2873792E-01  0.7036686E-02  0.1977448E+06  0.2053980E+05 -0.2670500E-01 -0.8794308E-02
  0.1000000E+01  0.7254601E-02 -0.4918933E-02  0.2060748E+06  0.3947132E+05 -0.7818222E-02  0.1098919E-01
  0.1100000E+01  0.1514001E-01 -0.2876282E-02  0.2097765E+06  0.6844288E+05 -0.1618472E-01 -0.8049011E-03
  0.1200000E+01  0.5209048E-02 -0.1916766E-02  0.2050221E+06  0.1071749E+06 -0.4154841E-02 -0.5006790E-02
  0.1300000E+01 -0.9545547E-02 -0.1195252E-01  0.1890064E+06  0.1509409E+06  0.9574890E-02  0.7910728E-02
  0.1400000E+01  0.9098053E-02  0.4781961E-02  0.1623917E+06  0.1910481E+06 -0.1595633E-01 -0.1085424E-01
  0.1500000E+01 -0.3375244E-01 -0.2348733E-01  0.1297204E+06  0.2183968E+06  0.2605438E-01  0.1981485E-01
  0.1600000E+01 -0.1241565E-02 -0.8614123E-02  0.9725103E+05  0.2282674E+06  0.3597736E-02  0.6072640E-02
  0.1700000E+01  0.1141155E-01  0.1180702E-01  0.6986432E+05  0.2212974E+06 -0.8491067E-02 -0.9847164E-02
  0.1800000E+01 -0.1351780E-01 -0.2933192E-01  0.4982746E+05  0.2016489E+06  0.1035478E-01  0.2441406E-01
  0.1900000E+01  0.5655289E-02  0.1151562E-02  0.3726742E+05  0.1742690E+06 -0.5697953E-02 -0.7888317E-02
  0.2000000E+01 -0.9889603E-03 -0.7013083E-02  0.3120658E+05  0.1435485E+06  0.2115250E-02  0.4925251E-02
  0.2100000E+01 -0.2238864E-02  0.1645446E-02  0.3019942E+05  0.1128284E+06  0.1820156E-02 -0.5685806E-02
  0.2200000E+01  0.1571829E-02 -0.1368266E-01  0.3282814E+05  0.8446094E+05  0.2179579E-02  0.8442402E-02
  0.2300000E+01 -0.3504131E-02 -0.1011416E-01  0.3781890E+05  0.6000319E+05  0.4557734E-02 -0.2752066E-02
  0.2400000E+01  0.5557537E-02 -0.8484423E-03  0.4405531E+05  0.4015618E+05  0.2614657E-02 -0.1130164E-01
  0.2500000E+01  0.3906250E-03 -0.1834813E-01  0.5065985E+05  0.2508380E+05  0.3253174E-02 -0.1331329E-02
  0.2600000E+01 -0.1822252E-02 -0.1931558E-01  0.5699849E+05  0.1445271E+05  0.7541364E-03 -0.4893422E-02
  0.2700000E+01  0.6134598E-02 -0.4140843E-02  0.6270381E+05  0.7517028E+04  0.8194534E-03 -0.7372931E-02
  0.2800000E+01  0.7887908E-02  0.1368299E-04  0.6759843E+05  0.3416017E+04  0.3479549E-02 -0.9040711E-02
  0.2900000E+01  0.5612538E-02 -0.6108829E-02  0.7161746E+05  0.1256881E+04 -0.6661250E-02 -0.5419895E-02
  0.3000000E+01  0.1296997E-02 -0.1911386E-02  0.7486498E+05  0.2707630E+03  0.7395426E-02 -0.1415134E-01
  0.3100000E+01  0.3187118E-02 -0.1155823E-02  0.7748960E+05 -0.7825761E+02  0.3105902E-02 -0.1419416E-01
  0.3200000E+01 -0.3174543E-02 -0.6700972E-03  0.7963089E+05 -0.1401431E+03  0.4541874E-02 -0.8619200E-02
Zone t="Motion of body    1 in DoF   3",I=    32,F=POINT
  0.1000000E+00 -0.1233813E+06 -0.2864922E-02 -0.6845593E-03  0.2450079E-07  0.1646816E+06  0.2949251E-02
  0.2000000E+00 -0.1253369E+06 -0.3827837E+00 -0.1255274E-02  0.4211804E-06  0.1665874E+06  0.3824497E+00
  0.3000000E+00 -0.1262963E+06 -0.6344317E+01  0.8440414E-02  0.3011459E-04  0.1675836E+06  0.6350249E+01
  0.4000000E+00 -0.1277871E+06 -0.4554646E+02 -0.7229447E-02 -0.1266318E-03  0.1691395E+06  0.4572997E+02
  0.5000000E+00 -0.1299506E+06 -0.2059108E+03 -0.2054501E-01 -0.3871392E-03  0.1713904E+06  0.2075370E+03
  0.6000001E+00 -0.1328949E+06 -0.6927707E+03  0.1505216E-02  0.2803714E-03  0.1744513E+06  0.7014091E+03
  0.7000000E+00 -0.1366850E+06 -0.1896171E+04 -0.3508874E-01 -0.6937528E-02  0.1784180E+06  0.1929747E+04
  0.8000001E+00 -0.1413450E+06 -0.4453867E+04  0.4829108E-01  0.1909956E-02  0.1832900E+06  0.4558297E+04
  0.9000000E+00 -0.1464655E+06 -0.9282136E+04  0.1966397E-01 -0.9860072E-02  0.1886635E+06  0.9554356E+04
  0.1000000E+01 -0.1515794E+06 -0.1753900E+05  0.3930330E-02 -0.5430568E-02  0.1940764E+06  0.1815787E+05
  0.1100000E+01 -0.1555432E+06 -0.3045312E+05 -0.1610496E-01  0.1939750E-01  0.1982312E+06  0.3168948E+05
  0.1200000E+01 -0.1571970E+06 -0.4905981E+05  0.2351761E-01 -0.1799834E-01  0.1998770E+06  0.5126171E+05
  0.1300000E+01 -0.1547533E+06 -0.7345372E+05 -0.1477645E-01  0.1508231E-01  0.1970882E+06  0.7694305E+05
  0.1400000E+01 -0.1466041E+06 -0.1021940E+06 -0.2388750E-01 -0.1138903E-01  0.1880112E+06  0.1069771E+06
  0.1500000E+01 -0.1318381E+06 -0.1315668E+06  0.6045341E-02  0.2435388E-01  0.1717239E+06  0.1370657E+06
  0.1600000E+01 -0.1111000E+06 -0.1557369E+06  0.2429187E-02 -0.7768869E-02  0.1491041E+06  0.1604352E+06
  0.1700000E+01 -0.8698407E+05 -0.1683803E+06 -0.1114677E-02 -0.1350370E-01  0.1233999E+06  0.1699639E+06
  0.1800000E+01 -0.6355510E+05 -0.1650433E+06 -0.2098640E-01  0.9692803E-02  0.9954712E+05  0.1609739E+06
  0.1900000E+01 -0.4499274E+05 -0.1455833E+06 -0.4202692E-02 -0.2644507E-01  0.8239966E+05  0.1343181E+06
  0.2000000E+01 -0.3395663E+05 -0.1144659E+06  0.1311421E-01 -0.1825703E-01  0.7483193E+05  0.9663074E+05
  0.2100000E+01 -0.3081299E+05 -0.7854586E+05  0.2279577E-01  0.1005953E-02  0.7679144E+05  0.5712380E+05
  0.2200000E+01 -0.3406522E+05 -0.4445295E+05  0.1231865E-01  0.1362331E-01  0.8576037E+05  0.2444394E+05
  0.2300000E+01 -0.4133885E+05 -0.1691818E+05  0.2544735E-01  0.2146188E-01  0.9809195E+05  0.4242168E+04
  0.2400000E+01 -0.5026196E+05  0.2098696E+04  0.1248519E-02  0.1658246E-01  0.1104401E+06 -0.1993632E+04
  0.2500000E+01 -0.5903081E+05  0.1286247E+05  0.2397804E-01 -0.6113683E-02  0.1203442E+06  0.3672476E+04
  0.2600000E+01 -0.6649316E+05  0.1699374E+05  0.1026740E-01 -0.9659742E-02  0.1264535E+06  0.1707208E+05
  0.2700000E+01 -0.7223148E+05  0.1661502E+05  0.1297068E-01 -0.1348010E-01  0.1287582E+06  0.3373935E+05
  0.2800000E+01 -0.7631705E+05  0.1388722E+05 -0.4904611E-04 -0.3988281E-02  0.1280059E+06  0.4936445E+05
  0.2900000E+01 -0.7905321E+05  0.1036952E+05  0.1614998E-02 -0.2662417E-02  0.1252153E+06  0.6121188E+05
  0.3000000E+01 -0.8078124E+05  0.7142121E+04  0.1468118E-01 -0.6525305E-02  0.1214944E+06  0.6763239E+05
  0.3100000E+01 -0.8187659E+05  0.4681305E+04  0.7881349E-02 -0.3793721E-02  0.1177879E+06  0.6891141E+05
  0.3200000E+01 -0.8265402E+05  0.2981719E+04  0.7337034E-02 -0.9007826E-02  0.1147076E+06  0.6615559E+05
