VARIABLES="w (rad/s)"
"abs(F   1   1)" "angle(F   1   1)"
"abs(F   1   2)" "angle(F   1   2)"
"abs(F   1   3)" "angle(F   1   3)"
Zone t="Diffraction force - beta =   0.000 deg",I=    32,F=POINT
  0.1000000E+00  0.3341537E+03 -0.1570795E+01  0.2831166E+06 -0.1463340E-04  0.1658479E+04 -0.1570802E+01
  0.2000000E+00  0.1332288E+04 -0.1570796E+01  0.2806522E+06 -0.2320736E-03  0.6613641E+04 -0.1570798E+01
  0.3000000E+00  0.2979523E+04 -0.1570790E+01  0.2764637E+06 -0.1157228E-02  0.1479700E+05 -0.1570789E+01
  0.4000000E+00  0.5252824E+04 -0.1570764E+01  0.2705404E+06 -0.3578395E-02  0.2611105E+05 -0.1570764E+01
  0.5000000E+00  0.8115176E+04 -0.1570676E+01  0.2629458E+06 -0.8488334E-02  0.4038132E+05 -0.1570677E+01
  0.6000001E+00  0.1152107E+05 -0.1570457E+01  0.2538419E+06 -0.1698317E-01  0.5739767E+05 -0.1570458E+01
  0.7000000E+00  0.1542467E+05 -0.1569998E+01  0.2434835E+06 -0.3015661E-01  0.7696190E+05 -0.1569998E+01
  0.8000001E+00  0.1974641E+05 -0.1569160E+01  0.2321708E+06 -0.4900596E-01  0.9869659E+05 -0.1569160E+01
  0.9000000E+00  0.2441114E+05 -0.1567794E+01  0.2202228E+06 -0.7435250E-01  0.1222344E+06 -0.1567794E+01
  0.1000000E+01  0.2931652E+05 -0.1565787E+01  0.2079788E+06 -0.1068506E+00  0.1471060E+06 -0.1565788E+01
  0.1100000E+01  0.3434504E+05 -0.1563123E+01  0.1957105E+06 -0.1469097E+00  0.1727159E+06 -0.1563124E+01
  0.1200000E+01  0.3933555E+05 -0.1559973E+01  0.1836265E+06 -0.1947917E+00  0.1982781E+06 -0.1559974E+01
  0.1300000E+01  0.4413980E+05 -0.1556794E+01  0.1719642E+06 -0.2506853E+00  0.2230594E+06 -0.1556796E+01
  0.1400000E+01  0.4855681E+05 -0.1554371E+01  0.1607690E+06 -0.3144044E+00  0.2460207E+06 -0.1554373E+01
  0.1500000E+01  0.5240030E+05 -0.1553914E+01  0.1501251E+06 -0.3859253E+00  0.2662138E+06 -0.1553915E+01
  0.1600000E+01  0.5551852E+05 -0.1557014E+01  0.1401040E+06 -0.4651855E+00  0.2828534E+06 -0.1557014E+01
  0.1700000E+01  0.5780090E+05 -0.1565503E+01  0.1307251E+06 -0.5520296E+00  0.2953402E+06 -0.1565502E+01
  0.1800000E+01  0.5919488E+05 -0.1581266E+01  0.1219836E+06 -0.6462907E+00  0.3033624E+06 -0.1581265E+01
  0.1900000E+01  0.5972613E+05 -0.1606059E+01  0.1138870E+06 -0.7479233E+00  0.3070145E+06 -0.1606059E+01
  0.2000000E+01  0.5947237E+05 -0.1641289E+01  0.1063779E+06 -0.8566769E+00  0.3066428E+06 -0.1641290E+01
  0.2100000E+01  0.5856091E+05 -0.1687999E+01  0.9943060E+05 -0.9724846E+00  0.3028754E+06 -0.1688003E+01
  0.2200000E+01  0.5713027E+05 -0.1746729E+01  0.9300452E+05 -0.1095170E+01  0.2963857E+06 -0.1746740E+01
  0.2300000E+01  0.5532323E+05 -0.1817713E+01  0.8706945E+05 -0.1224729E+01  0.2878924E+06 -0.1817736E+01
  0.2400000E+01  0.5326316E+05 -0.1900906E+01  0.8158209E+05 -0.1361073E+01  0.2780276E+06 -0.1900944E+01
  0.2500000E+01  0.5105860E+05 -0.1995994E+01  0.7652630E+05 -0.1504246E+01  0.2673334E+06 -0.1996066E+01
  0.2600000E+01  0.4877917E+05 -0.2102537E+01  0.7183655E+05 -0.1654019E+01  0.2561726E+06 -0.2102643E+01
  0.2700000E+01  0.4648417E+05 -0.2219939E+01  0.6748532E+05 -0.1810272E+01  0.2448446E+06 -0.2220110E+01
  0.2800000E+01  0.4422117E+05 -0.2347932E+01  0.6344442E+05 -0.1973261E+01  0.2336163E+06 -0.2348145E+01
  0.2900000E+01  0.4203412E+05 -0.2486057E+01  0.5973249E+05 -0.2143417E+01  0.2227180E+06 -0.2486383E+01
  0.3000000E+01  0.3992219E+05 -0.2633826E+01  0.5625308E+05 -0.2320694E+01  0.2121495E+06 -0.2634234E+01
  0.3100000E+01  0.3789446E+05 -0.2790625E+01  0.5298218E+05 -0.2505587E+01  0.2019602E+06 -0.2791163E+01
  0.3200000E+01  0.3597038E+05 -0.2956679E+01  0.4975119E+05 -0.2703593E+01  0.1922662E+06 -0.2957277E+01
