VARIABLES="w (rad/s)"
"abs(F   1   1)" "angle(F   1   1)"
"abs(F   1   2)" "angle(F   1   2)"
"abs(F   1   3)" "angle(F   1   3)"
Zone t="Diffraction force - beta =   0.000 deg",I=    32,F=POINT
  0.1000000E+00  0.1349515E+04 -0.1570796E+01  0.1309835E+04 -0.3141215E+01  0.1795672E+03  0.1570796E+01
  0.2000000E+00  0.5444457E+04 -0.1570782E+01  0.5189972E+04 -0.3140368E+01  0.7355469E+03  0.1570804E+01
  0.3000000E+00  0.1224288E+05 -0.1570637E+01  0.1156373E+05 -0.3139741E+01  0.1727121E+04  0.1570893E+01
  0.4000000E+00  0.2178009E+05 -0.1569939E+01  0.2029237E+05 -0.3139962E+01  0.3252057E+04  0.1571326E+01
  0.5000000E+00  0.3416111E+05 -0.1567708E+01  0.3123662E+05 -0.3140997E+01  0.5453003E+04  0.1572738E+01
  0.6000001E+00  0.4962102E+05 -0.1562187E+01  0.4434638E+05  0.3141587E+01  0.8533675E+04  0.1576330E+01
  0.7000000E+00  0.6859007E+05 -0.1550719E+01  0.5967295E+05 -0.3138991E+01  0.1276483E+05  0.1584036E+01
  0.8000001E+00  0.9176128E+05 -0.1529727E+01  0.7726301E+05 -0.3128956E+01  0.1854585E+05  0.1598657E+01
  0.9000000E+00  0.1200897E+06 -0.1494696E+01  0.9715140E+05 -0.3106331E+01  0.2631652E+05  0.1624079E+01
  0.1000000E+01  0.1548735E+06 -0.1440072E+01  0.1189767E+06 -0.3065862E+01  0.3682727E+05  0.1665410E+01
  0.1100000E+01  0.1976386E+06 -0.1358852E+01  0.1418042E+06 -0.3003232E+01  0.5078727E+05  0.1729641E+01
  0.1200000E+01  0.2499494E+06 -0.1241733E+01  0.1635250E+06 -0.2916816E+01  0.6926211E+05  0.1826105E+01
  0.1300000E+01  0.3117558E+06 -0.1077316E+01  0.1813492E+06 -0.2807795E+01  0.9261008E+05  0.1966853E+01
  0.1400000E+01  0.3781549E+06 -0.8541779E+00  0.1922217E+06 -0.2682341E+01  0.1194923E+06  0.2164399E+01
  0.1500000E+01  0.4342019E+06 -0.5699547E+00  0.1941899E+06 -0.2549517E+01  0.1449804E+06  0.2421717E+01
  0.1600000E+01  0.4581295E+06 -0.2467401E+00  0.1868960E+06 -0.2420107E+01  0.1605571E+06  0.2717959E+01
  0.1700000E+01  0.4419018E+06  0.7255773E-01  0.1721531E+06 -0.2302184E+01  0.1606969E+06  0.3012663E+01
  0.1800000E+01  0.3989273E+06  0.3515031E+00  0.1526330E+06 -0.2200991E+01  0.1489737E+06 -0.3011798E+01
  0.1900000E+01  0.3489551E+06  0.5824878E+00  0.1310207E+06 -0.2118043E+01  0.1322561E+06 -0.2793401E+01
  0.2000000E+01  0.3023936E+06  0.7728297E+00  0.1092316E+06 -0.2054521E+01  0.1148238E+06 -0.2603889E+01
  0.2100000E+01  0.2623470E+06  0.9321179E+00  0.8854673E+05 -0.2012143E+01  0.9896241E+05 -0.2429739E+01
  0.2200000E+01  0.2287578E+06  0.1068692E+01  0.6979282E+05 -0.1994338E+01  0.8524983E+05 -0.2258519E+01
  0.2300000E+01  0.2005230E+06  0.1187634E+01  0.5345733E+05 -0.2010197E+01  0.7371957E+05 -0.2081326E+01
  0.2400000E+01  0.1765481E+06  0.1291511E+01  0.3987542E+05 -0.2076954E+01  0.6473968E+05 -0.1895891E+01
  0.2500000E+01  0.1557920E+06  0.1382408E+01  0.2945940E+05 -0.2221506E+01  0.5804778E+05 -0.1706409E+01
  0.2600000E+01  0.1375062E+06  0.1461891E+01  0.2273642E+05 -0.2469714E+01  0.5320684E+05 -0.1518019E+01
  0.2700000E+01  0.1210925E+06  0.1530643E+01  0.2001288E+05 -0.2787749E+01  0.4984027E+05 -0.1342106E+01
  0.2800000E+01  0.1062472E+06  0.1589187E+01  0.2046975E+05 -0.3061471E+01  0.4752832E+05 -0.1188500E+01
  0.2900000E+01  0.9260945E+05  0.1638054E+01  0.2242419E+05  0.3056189E+01  0.4549447E+05 -0.1060891E+01
  0.3000000E+01  0.7998683E+05  0.1678110E+01  0.2465164E+05  0.2980592E+01  0.4329402E+05 -0.9577358E+00
  0.3100000E+01  0.6828109E+05  0.1709822E+01  0.2647062E+05  0.2965481E+01  0.4073024E+05 -0.8794037E+00
  0.3200000E+01  0.5749559E+05  0.1735164E+01  0.2710446E+05  0.3001411E+01  0.3782450E+05 -0.8214412E+00
