VARIABLES="w (rad/s)"
"abs(F   1   1)" "angle(F   1   1)"
"abs(F   1   2)" "angle(F   1   2)"
"abs(F   1   3)" "angle(F   1   3)"
Zone t="Diffraction force - beta =   0.000 deg",I=    32,F=POINT
  0.1000000E+00  0.3346519E+04 -0.1570796E+01  0.1786021E+06 -0.9002657E-05  0.1326263E+04 -0.1570803E+01
  0.2000000E+00  0.1336840E+05 -0.1570790E+01  0.1693735E+06 -0.1364713E-03  0.5264195E+04 -0.1570791E+01
  0.3000000E+00  0.2985467E+05 -0.1570734E+01  0.1543238E+06 -0.6302437E-03  0.1159054E+05 -0.1570735E+01
  0.4000000E+00  0.5253699E+05 -0.1570456E+01  0.1339496E+06 -0.1741075E-02  0.2000424E+05 -0.1570456E+01
  0.5000000E+00  0.8114323E+05 -0.1569539E+01  0.1089444E+06 -0.3533799E-02  0.3009155E+05 -0.1569539E+01
  0.6000001E+00  0.1154490E+06 -0.1567177E+01  0.8006128E+05 -0.5711956E-02  0.4136903E+05 -0.1567177E+01
  0.7000000E+00  0.1553288E+06 -0.1562007E+01  0.4795822E+05 -0.7481953E-02  0.5334105E+05 -0.1562008E+01
  0.8000001E+00  0.2008285E+06 -0.1551929E+01  0.1354244E+05 -0.7343058E-02  0.6542207E+05 -0.1551932E+01
  0.9000000E+00  0.2524526E+06 -0.1533821E+01  0.2263531E+05  0.3136577E+01  0.7696247E+05 -0.1533825E+01
  0.1000000E+01  0.3103213E+06 -0.1503228E+01  0.5959168E+05 -0.3138233E+01  0.8720623E+05 -0.1503247E+01
  0.1100000E+01  0.3749932E+06 -0.1453786E+01  0.9653470E+05 -0.3123255E+01  0.9512123E+05 -0.1453843E+01
  0.1200000E+01  0.4452882E+06 -0.1376652E+01  0.1313787E+06 -0.3100926E+01  0.9898542E+05 -0.1376691E+01
  0.1300000E+01  0.5149756E+06 -0.1262069E+01  0.1629434E+06 -0.3071087E+01  0.9664520E+05 -0.1262174E+01
  0.1400000E+01  0.5712408E+06 -0.1102530E+01  0.1887990E+06 -0.3036439E+01  0.8504563E+05 -0.1102701E+01
  0.1500000E+01  0.5923358E+06 -0.9030622E+00  0.2068939E+06 -0.3000867E+01  0.6188550E+05 -0.9035828E+00
  0.1600000E+01  0.5610441E+06 -0.6929525E+00  0.2160572E+06 -0.2970599E+01  0.3095645E+05 -0.6942073E+00
  0.1700000E+01  0.4880413E+06 -0.5090891E+00  0.2168418E+06 -0.2950113E+01  0.4569077E+03  0.2791367E+01
  0.1800000E+01  0.3997647E+06 -0.3757685E+00  0.2105416E+06 -0.2943957E+01  0.2540177E+05  0.2768144E+01
  0.1900000E+01  0.3165466E+06 -0.2931642E+00  0.1991923E+06 -0.2953465E+01  0.4264473E+05  0.2849723E+01
  0.2000000E+01  0.2461445E+06 -0.2539124E+00  0.1846995E+06 -0.2979410E+01  0.5313661E+05  0.2889354E+01
  0.2100000E+01  0.1891915E+06 -0.2480090E+00  0.1686233E+06 -0.3021047E+01  0.5828799E+05  0.2893538E+01
  0.2200000E+01  0.1438237E+06 -0.2669952E+00  0.1520953E+06 -0.3076537E+01  0.5992043E+05  0.2874730E+01
  0.2300000E+01  0.1079174E+06 -0.3051150E+00  0.1358818E+06  0.3138679E+01  0.5900188E+05  0.2837370E+01
  0.2400000E+01  0.7967318E+05 -0.3600836E+00  0.1204382E+06  0.3059038E+01  0.5613126E+05  0.2780194E+01
  0.2500000E+01  0.5749126E+05 -0.4294358E+00  0.1060334E+06  0.2969602E+01  0.5208154E+05  0.2710495E+01
  0.2600000E+01  0.4012284E+05 -0.5080467E+00  0.9284594E+05  0.2871414E+01  0.4733911E+05  0.2632770E+01
  0.2700000E+01  0.2669213E+05 -0.5968965E+00  0.8104934E+05  0.2765214E+01  0.4221579E+05  0.2541476E+01
  0.2800000E+01  0.1633260E+05 -0.6962508E+00  0.7100177E+05  0.2655086E+01  0.3701514E+05  0.2438440E+01
  0.2900000E+01  0.8434179E+04 -0.8013244E+00  0.6817622E+05  0.2573648E+01  0.3188889E+05  0.2329129E+01
  0.3000000E+01  0.2478927E+04 -0.8781893E+00  0.4660494E+05  0.2375993E+01  0.2694312E+05  0.2213231E+01
  0.3100000E+01  0.1866602E+04  0.2007739E+01  0.4118521E+05  0.2245518E+01  0.2244214E+05  0.2086943E+01
  0.3200000E+01  0.4964504E+04  0.1930357E+01  0.3517621E+05  0.2102241E+01  0.1839037E+05  0.1953806E+01
