VARIABLES="w (rad/s)"
"abs(F   1   1)" "angle(F   1   1)"
"abs(F   1   2)" "angle(F   1   2)"
"abs(F   1   3)" "angle(F   1   3)"
Zone t="FKforce - beta =   0.000",I=    32,F=POINT
  0.1000000E+00  0.2031546E+04 -0.1570796E+01  0.1796793E+06  0.1080707E-10  0.9093308E+03 -0.1570806E+01
  0.2000000E+00  0.8059742E+04 -0.1570796E+01  0.1736495E+06  0.1973026E-09  0.3592054E+04 -0.1570796E+01
  0.3000000E+00  0.1788761E+05 -0.1570796E+01  0.1638126E+06 -0.2269569E-10  0.7914385E+04 -0.1570798E+01
  0.4000000E+00  0.3119461E+05 -0.1570796E+01  0.1504817E+06 -0.1085243E-08  0.1365997E+05 -0.1570797E+01
  0.5000000E+00  0.4754779E+05 -0.1570796E+01  0.1340786E+06  0.3090289E-08  0.2053958E+05 -0.1570796E+01
  0.6000001E+00  0.6641727E+05 -0.1570796E+01  0.1151178E+06  0.3824127E-08  0.2820455E+05 -0.1570796E+01
  0.7000000E+00  0.8719364E+05 -0.1570796E+01  0.9419140E+05  0.5309221E-08  0.3626298E+05 -0.1570796E+01
  0.8000001E+00  0.1092108E+06 -0.1570796E+01  0.7194473E+05  0.1582394E-08  0.4429862E+05 -0.1570796E+01
  0.9000000E+00  0.1317671E+06 -0.1570796E+01  0.4905496E+05  0.1111657E-07  0.5189160E+05 -0.1570796E+01
  0.1000000E+01  0.1541498E+06 -0.1570796E+01  0.2620915E+05  0.3976197E-07  0.5863962E+05 -0.1570796E+01
  0.1100000E+01  0.1756578E+06 -0.1570796E+01  0.4076755E+04 -0.2210124E-06  0.6417943E+05 -0.1570796E+01
  0.1200000E+01  0.1956271E+06 -0.1570796E+01  0.1670940E+05  0.3141593E+01  0.6820622E+05 -0.1570796E+01
  0.1300000E+01  0.2134506E+06 -0.1570796E+01  0.3557700E+05  0.3141593E+01  0.7049098E+05 -0.1570796E+01
  0.1400000E+01  0.2285965E+06 -0.1570796E+01  0.5203183E+05 -0.3141593E+01  0.7089351E+05 -0.1570796E+01
  0.1500000E+01  0.2406272E+06 -0.1570796E+01  0.6567479E+05 -0.3141593E+01  0.6937099E+05 -0.1570796E+01
  0.1600000E+01  0.2492098E+06 -0.1570796E+01  0.7621238E+05  0.3141593E+01  0.6598096E+05 -0.1570796E+01
  0.1700000E+01  0.2541268E+06 -0.1570796E+01  0.8346829E+05 -0.3141593E+01  0.6087852E+05 -0.1570796E+01
  0.1800000E+01  0.2552784E+06 -0.1570796E+01  0.8738262E+05 -0.3141593E+01  0.5430653E+05 -0.1570796E+01
  0.1900000E+01  0.2526847E+06 -0.1570796E+01  0.8801533E+05  0.3141593E+01  0.4658180E+05 -0.1570796E+01
  0.2000000E+01  0.2464804E+06 -0.1570796E+01  0.8553895E+05  0.3141593E+01  0.3807549E+05 -0.1570796E+01
  0.2100000E+01  0.2369074E+06 -0.1570796E+01  0.8022872E+05  0.3141593E+01  0.2919002E+05 -0.1570796E+01
  0.2200000E+01  0.2243005E+06 -0.1570796E+01  0.7244998E+05 -0.3141593E+01  0.2033486E+05 -0.1570796E+01
  0.2300000E+01  0.2090736E+06 -0.1570796E+01  0.6264123E+05  0.3141593E+01  0.1190109E+05 -0.1570796E+01
  0.2400000E+01  0.1917017E+06 -0.1570796E+01  0.5129256E+05 -0.3141593E+01  0.4238605E+04 -0.1570796E+01
  0.2500000E+01  0.1726988E+06 -0.1570796E+01  0.3892729E+05 -0.3141593E+01  0.2364095E+04  0.1570796E+01
  0.2600000E+01  0.1526007E+06 -0.1570796E+01  0.2607701E+05  0.3141593E+01  0.7695023E+04  0.1570796E+01
  0.2700000E+01  0.1319407E+06 -0.1570796E+01  0.1326130E+05 -0.3141593E+01  0.1162804E+05  0.1570796E+01
  0.2800000E+01  0.1112349E+06 -0.1570796E+01  0.9668100E+03  0.3141593E+01  0.1412586E+05  0.1570796E+01
  0.2900000E+01  0.9096146E+05 -0.1570796E+01  0.1037129E+05 -0.2676343E-06  0.1523635E+05  0.1570796E+01
  0.3000000E+01  0.7154876E+05 -0.1570796E+01  0.2038412E+05 -0.1794225E-07  0.1508345E+05  0.1570796E+01
  0.3100000E+01  0.5336379E+05 -0.1570796E+01  0.2878072E+05 -0.1023339E-07  0.1385257E+05  0.1570796E+01
  0.3200000E+01  0.3670534E+05 -0.1570796E+01  0.3535514E+05 -0.6057795E-07  0.1177312E+05  0.1570796E+01
