 VARIABLES="Time (s)"
"AddedMass    1" "IRF    1"
"AddedMass    2" "IRF    2"
"AddedMass    3" "IRF    3"
Zone t="DoF    1",I=   160,F=POINT
  0.0000000E+00  0.7904607E+05  0.1345256E+06 -0.5435324E-02  0.5409207E-02 -0.3608842E+03 -0.4527845E+05
  0.1000000E+00  0.7904607E+05  0.1327305E+06 -0.5435324E-02  0.5245255E-02 -0.3608842E+03 -0.4462030E+05
  0.2000000E+00  0.7904607E+05  0.1273985E+06 -0.5435324E-02  0.4763754E-02 -0.3608842E+03 -0.4266754E+05
  0.3000000E+00  0.7904607E+05  0.1186886E+06 -0.5435324E-02  0.3995084E-02 -0.3608842E+03 -0.3948427E+05
  0.4000000E+00  0.7904607E+05  0.1068594E+06 -0.5435324E-02  0.2987686E-02 -0.3608842E+03 -0.3517464E+05
  0.5000000E+00  0.7904607E+05  0.9226134E+05 -0.5435324E-02  0.1804921E-02 -0.3608842E+03 -0.2987883E+05
  0.6000000E+00  0.7904607E+05  0.7532439E+05 -0.5435324E-02  0.5209722E-03 -0.3608842E+03 -0.2376774E+05
  0.7000000E+00  0.7904607E+05  0.5654440E+05 -0.5435324E-02 -0.7839344E-03 -0.3608842E+03 -0.1703667E+05
  0.8000000E+00  0.7904607E+05  0.3646671E+05 -0.5435324E-02 -0.2028679E-02 -0.3608842E+03 -0.9898113E+04
  0.9000000E+00  0.7904607E+05  0.1566876E+05 -0.5435324E-02 -0.3136413E-02 -0.3608842E+03 -0.2574133E+04
  0.1000000E+01  0.7904607E+05 -0.5258362E+04 -0.5435324E-02 -0.4039423E-02 -0.3608842E+03  0.4711443E+04
  0.1100000E+01  0.7904607E+05 -0.2572846E+05 -0.5435324E-02 -0.4683344E-02 -0.3608842E+03  0.1174063E+05
  0.1200000E+01  0.7904607E+05 -0.4517820E+05 -0.5435324E-02 -0.5030481E-02 -0.3608842E+03  0.1830841E+05
  0.1300000E+01  0.7904607E+05 -0.6308405E+05 -0.5435324E-02 -0.5062003E-02 -0.3608842E+03  0.2422920E+05
  0.1400000E+01  0.7904607E+05 -0.7897765E+05 -0.5435324E-02 -0.4778896E-02 -0.3608842E+03  0.2934228E+05
  0.1500000E+01  0.7904607E+05 -0.9245885E+05 -0.5435324E-02 -0.4201626E-02 -0.3608842E+03  0.3351622E+05
  0.1600000E+01  0.7904607E+05 -0.1032064E+06 -0.5435324E-02 -0.3368534E-02 -0.3608842E+03  0.3665209E+05
  0.1700000E+01  0.7904607E+05 -0.1109859E+06 -0.5435324E-02 -0.2333110E-02 -0.3608842E+03  0.3868532E+05
  0.1800000E+01  0.7904607E+05 -0.1156547E+06 -0.5435324E-02 -0.1160341E-02 -0.3608842E+03  0.3958659E+05
  0.1900000E+01  0.7904607E+05 -0.1171635E+06 -0.5435324E-02  0.7763209E-04 -0.3608842E+03  0.3936129E+05
  0.2000000E+01  0.7904607E+05 -0.1155556E+06 -0.5435324E-02  0.1306204E-02 -0.3608842E+03  0.3804807E+05
  0.2100000E+01  0.7904607E+05 -0.1109629E+06 -0.5435324E-02  0.2453062E-02 -0.3608842E+03  0.3571640E+05
  0.2200000E+01  0.7904607E+05 -0.1035991E+06 -0.5435324E-02  0.3452668E-02 -0.3608842E+03  0.3246334E+05
  0.2300000E+01  0.7904607E+05 -0.9375084E+05 -0.5435324E-02  0.4250193E-02 -0.3608842E+03  0.2840963E+05
  0.2400000E+01  0.7904607E+05 -0.8176694E+05 -0.5435324E-02  0.4804626E-02 -0.3608842E+03  0.2369532E+05
  0.2500000E+01  0.7904607E+05 -0.6804605E+05 -0.5435324E-02  0.5090888E-02 -0.3608842E+03  0.1847507E+05
  0.2600000E+01  0.7904607E+05 -0.5302291E+05 -0.5435324E-02  0.5100844E-02 -0.3608842E+03  0.1291314E+05
  0.2700000E+01  0.7904607E+05 -0.3715463E+05 -0.5435324E-02  0.4843163E-02 -0.3608842E+03  0.7178524E+04
  0.2800000E+01  0.7904607E+05 -0.2090596E+05 -0.5435324E-02  0.4342057E-02 -0.3608842E+03  0.1439856E+04
  0.2900000E+01  0.7904607E+05 -0.4735500E+04 -0.5435324E-02  0.3635069E-02 -0.3608842E+03 -0.4139318E+04
  0.3000000E+01  0.7904607E+05  0.1091743E+05 -0.5435324E-02  0.2770049E-02 -0.3608842E+03 -0.9405018E+04
  0.3100000E+01  0.7904607E+05  0.2564541E+05 -0.5435324E-02  0.1801566E-02 -0.3608842E+03 -0.1421711E+05
  0.3200000E+01  0.7904607E+05  0.3908334E+05 -0.5435324E-02  0.7870476E-03 -0.3608842E+03 -0.1845287E+05
  0.3300000E+01  0.7904607E+05  0.5091777E+05 -0.5435324E-02 -0.2170988E-03 -0.3608842E+03 -0.2201029E+05
  0.3400000E+01  0.7904607E+05  0.6089399E+05 -0.5435324E-02 -0.1159094E-02 -0.3608842E+03 -0.2481054E+05
  0.3500000E+01  0.7904607E+05  0.6882104E+05 -0.5435324E-02 -0.1994867E-02 -0.3608842E+03 -0.2679976E+05
  0.3600000E+01  0.7904607E+05  0.7457488E+05 -0.5435324E-02 -0.2690453E-02 -0.3608842E+03 -0.2795027E+05
  0.3700000E+01  0.7904607E+05  0.7809891E+05 -0.5435324E-02 -0.3223509E-02 -0.3608842E+03 -0.2826075E+05
  0.3800000E+01  0.7904607E+05  0.7940284E+05 -0.5435324E-02 -0.3583917E-02 -0.3608842E+03 -0.2775566E+05
  0.3900000E+01  0.7904607E+05  0.7855927E+05 -0.5435324E-02 -0.3773467E-02 -0.3608842E+03 -0.2648390E+05
  0.4000000E+01  0.7904607E+05  0.7569854E+05 -0.5435324E-02 -0.3804657E-02 -0.3608842E+03 -0.2451657E+05
  0.4100000E+01  0.7904607E+05  0.7100214E+05 -0.5435324E-02 -0.3698790E-02 -0.3608842E+03 -0.2194404E+05
  0.4200000E+01  0.7904607E+05  0.6469467E+05 -0.5435324E-02 -0.3483510E-02 -0.3608842E+03 -0.1887231E+05
  0.4300000E+01  0.7904607E+05  0.5703495E+05 -0.5435324E-02 -0.3190028E-02 -0.3608842E+03 -0.1541902E+05
  0.4400000E+01  0.7904607E+05  0.4830637E+05 -0.5435324E-02 -0.2850230E-02 -0.3608842E+03 -0.1170886E+05
  0.4500000E+01  0.7904607E+05  0.3880707E+05 -0.5435324E-02 -0.2493952E-02 -0.3608842E+03 -0.7869006E+04
  0.4600000E+01  0.7904607E+05  0.2884010E+05 -0.5435324E-02 -0.2146598E-02 -0.3608842E+03 -0.4024496E+04
  0.4700000E+01  0.7904607E+05  0.1870409E+05 -0.5435324E-02 -0.1827304E-02 -0.3608842E+03 -0.2938190E+03
  0.4800000E+01  0.7904607E+05  0.8684517E+04 -0.5435324E-02 -0.1547778E-02 -0.3608842E+03  0.3215034E+04
  0.4900000E+01  0.7904607E+05 -0.9541251E+03 -0.5435324E-02 -0.1311853E-02 -0.3608842E+03  0.6408025E+04
  0.5000000E+01  0.7904607E+05 -0.9974963E+04 -0.5435324E-02 -0.1115824E-02 -0.3608842E+03  0.9207764E+04
  0.5100000E+01  0.7904607E+05 -0.1817392E+05 -0.5435324E-02 -0.9494683E-03 -0.3608842E+03  0.1155531E+05
  0.5200000E+01  0.7904607E+05 -0.2538369E+05 -0.5435324E-02 -0.7976398E-03 -0.3608842E+03  0.1341123E+05
  0.5300000E+01  0.7904607E+05 -0.3147595E+05 -0.5435324E-02 -0.6423212E-03 -0.3608842E+03  0.1475558E+05
  0.5400000E+01  0.7904607E+05 -0.3636264E+05 -0.5435324E-02 -0.4649042E-03 -0.3608842E+03  0.1558728E+05
  0.5500000E+01  0.7904607E+05 -0.3999534E+05 -0.5435324E-02 -0.2484920E-03 -0.3608842E+03  0.1592247E+05
  0.5600000E+01  0.7904607E+05 -0.4236369E+05 -0.5435324E-02  0.1994763E-04 -0.3608842E+03  0.1579244E+05
  0.5700000E+01  0.7904607E+05 -0.4349279E+05 -0.5435324E-02  0.3478104E-03 -0.3608842E+03  0.1524090E+05
  0.5800000E+01  0.7904607E+05 -0.4343945E+05 -0.5435324E-02  0.7355844E-03 -0.3608842E+03  0.1432110E+05
  0.5900000E+01  0.7904607E+05 -0.4228815E+05 -0.5435324E-02  0.1176232E-02 -0.3608842E+03  0.1309273E+05
  0.6000000E+01  0.7904607E+05 -0.4014613E+05 -0.5435324E-02  0.1655263E-02 -0.3608842E+03  0.1161887E+05
  0.6100000E+01  0.7904607E+05 -0.3713862E+05 -0.5435324E-02  0.2151484E-02 -0.3608842E+03  0.9963287E+04
  0.6200000E+01  0.7904607E+05 -0.3340372E+05 -0.5435324E-02  0.2638387E-02 -0.3608842E+03  0.8187864E+04
  0.6300000E+01  0.7904607E+05 -0.2908763E+05 -0.5435324E-02  0.3086073E-02 -0.3608842E+03  0.6350701E+04
  0.6400000E+01  0.7904607E+05 -0.2434008E+05 -0.5435324E-02  0.3463547E-02 -0.3608842E+03  0.4504565E+04
  0.6500000E+01  0.7904607E+05 -0.1930997E+05 -0.5435324E-02  0.3741184E-02 -0.3608842E+03  0.2695853E+04
  0.6600000E+01  0.7904607E+05 -0.1414188E+05 -0.5435324E-02  0.3893191E-02 -0.3608842E+03  0.9642184E+03
  0.6700000E+01  0.7904607E+05 -0.8972724E+04 -0.5435324E-02  0.3899855E-02 -0.3608842E+03 -0.6575732E+03
  0.6800000E+01  0.7904607E+05 -0.3929125E+04 -0.5435324E-02  0.3749393E-02 -0.3608842E+03 -0.2143299E+04
  0.6900000E+01  0.7904607E+05  0.8746307E+03 -0.5435324E-02  0.3439240E-02 -0.3608842E+03 -0.3472719E+04
  0.7000000E+01  0.7904607E+05  0.5338338E+04 -0.5435324E-02  0.2976680E-02 -0.3608842E+03 -0.4630877E+04
  0.7100000E+01  0.7904607E+05  0.9376868E+04 -0.5435324E-02  0.2378774E-02 -0.3608842E+03 -0.5607338E+04
  0.7200000E+01  0.7904607E+05  0.1292101E+05 -0.5435324E-02  0.1671532E-02 -0.3608842E+03 -0.6395498E+04
  0.7300000E+01  0.7904607E+05  0.1591766E+05 -0.5435324E-02  0.8884633E-03 -0.3608842E+03 -0.6991978E+04
  0.7400000E+01  0.7904607E+05  0.1832990E+05 -0.5435324E-02  0.6851991E-04 -0.3608842E+03 -0.7396196E+04
  0.7500000E+01  0.7904607E+05  0.2013677E+05 -0.5435324E-02 -0.7463456E-03 -0.3608842E+03 -0.7610167E+04
  0.7600000E+01  0.7904607E+05  0.2133258E+05 -0.5435324E-02 -0.1513860E-02 -0.3608842E+03 -0.7638400E+04
  0.7700000E+01  0.7904607E+05  0.2192629E+05 -0.5435324E-02 -0.2194163E-02 -0.3608842E+03 -0.7487980E+04
  0.7800000E+01  0.7904607E+05  0.2194036E+05 -0.5435324E-02 -0.2752349E-02 -0.3608842E+03 -0.7168732E+04
  0.7900000E+01  0.7904607E+05  0.2140964E+05 -0.5435324E-02 -0.3160696E-02 -0.3608842E+03 -0.6693398E+04
  0.8000000E+01  0.7904607E+05  0.2038007E+05 -0.5435324E-02 -0.3400399E-02 -0.3608842E+03 -0.6077796E+04
  0.8100000E+01  0.7904607E+05  0.1890706E+05 -0.5435324E-02 -0.3462635E-02 -0.3608842E+03 -0.5340831E+04
  0.8200000E+01  0.7904607E+05  0.1705381E+05 -0.5435324E-02 -0.3349007E-02 -0.3608842E+03 -0.4504379E+04
  0.8300000E+01  0.7904607E+05  0.1488949E+05 -0.5435324E-02 -0.3071219E-02 -0.3608842E+03 -0.3592932E+04
  0.8400001E+01  0.7904607E+05  0.1248722E+05 -0.5435324E-02 -0.2650128E-02 -0.3608842E+03 -0.2633058E+04
  0.8500000E+01  0.7904607E+05  0.9922353E+04 -0.5435324E-02 -0.2114184E-02 -0.3608842E+03 -0.1652705E+04
  0.8600000E+01  0.7904607E+05  0.7270124E+04 -0.5435324E-02 -0.1497393E-02 -0.3608842E+03 -0.6802051E+03
  0.8700000E+01  0.7904607E+05  0.4603935E+04 -0.5435324E-02 -0.8370146E-03 -0.3608842E+03  0.2566917E+03
  0.8800000E+01  0.7904607E+05  0.1993271E+04 -0.5435324E-02 -0.1710557E-03 -0.3608842E+03  0.1131970E+04
  0.8900001E+01  0.7904607E+05 -0.4976576E+03 -0.5435324E-02  0.4641190E-03 -0.3608842E+03  0.1922280E+04
  0.9000000E+01  0.7904607E+05 -0.2811956E+04 -0.5435324E-02  0.1036002E-02 -0.3608842E+03  0.2608084E+04
  0.9100000E+01  0.7904607E+05 -0.4900720E+04 -0.5435324E-02  0.1517828E-02 -0.3608842E+03  0.3174228E+04
  0.9200000E+01  0.7904607E+05 -0.6724364E+04 -0.5435324E-02  0.1889901E-02 -0.3608842E+03  0.3610646E+04
  0.9300000E+01  0.7904607E+05 -0.8253050E+04 -0.5435324E-02  0.2140442E-02 -0.3608842E+03  0.3912528E+04
  0.9400001E+01  0.7904607E+05 -0.9466933E+04 -0.5435324E-02  0.2265798E-02 -0.3608842E+03  0.4080330E+04
  0.9500000E+01  0.7904607E+05 -0.1035617E+05 -0.5435324E-02  0.2270114E-02 -0.3608842E+03  0.4119462E+04
  0.9600000E+01  0.7904607E+05 -0.1092046E+05 -0.5435324E-02  0.2164443E-02 -0.3608842E+03  0.4039697E+04
  0.9700000E+01  0.7904607E+05 -0.1116832E+05 -0.5435324E-02  0.1965473E-02 -0.3608842E+03  0.3854374E+04
  0.9800000E+01  0.7904607E+05 -0.1111624E+05 -0.5435324E-02  0.1693894E-02 -0.3608842E+03  0.3579465E+04
  0.9900001E+01  0.7904607E+05 -0.1078733E+05 -0.5435324E-02  0.1372622E-02 -0.3608842E+03  0.3232491E+04
  0.1000000E+02  0.7904607E+05 -0.1021051E+05 -0.5435324E-02  0.1024996E-02 -0.3608842E+03  0.2831629E+04
  0.1010000E+02  0.7904607E+05 -0.9418616E+04 -0.5435324E-02  0.6730374E-03 -0.3608842E+03  0.2394587E+04
  0.1020000E+02  0.7904607E+05 -0.8447718E+04 -0.5435324E-02  0.3359989E-03 -0.3608842E+03  0.1937974E+04
  0.1030000E+02  0.7904607E+05 -0.7335217E+04 -0.5435324E-02  0.2918909E-04 -0.3608842E+03  0.1476485E+04
  0.1040000E+02  0.7904607E+05 -0.6119154E+04 -0.5435324E-02 -0.2367781E-03 -0.3608842E+03  0.1022625E+04
  0.1050000E+02  0.7904607E+05 -0.4836994E+04 -0.5435324E-02 -0.4562932E-03 -0.3608842E+03  0.5864799E+03
  0.1060000E+02  0.7904607E+05 -0.3524692E+04 -0.5435324E-02 -0.6286961E-03 -0.3608842E+03  0.1757108E+03
  0.1070000E+02  0.7904607E+05 -0.2215934E+04 -0.5435324E-02 -0.7577377E-03 -0.3608842E+03 -0.2042364E+03
  0.1080000E+02  0.7904607E+05 -0.9418052E+03 -0.5435324E-02 -0.8507908E-03 -0.3608842E+03 -0.5497059E+03
  0.1090000E+02  0.7904607E+05  0.2699803E+03 -0.5435324E-02 -0.9177668E-03 -0.3608842E+03 -0.8585205E+03
  0.1100000E+02  0.7904607E+05  0.1395173E+04 -0.5435324E-02 -0.9699157E-03 -0.3608842E+03 -0.1129448E+04
  0.1110000E+02  0.7904607E+05  0.2413107E+04 -0.5435324E-02 -0.1018588E-02 -0.3608842E+03 -0.1361743E+04
  0.1120000E+02  0.7904607E+05  0.3306922E+04 -0.5435324E-02 -0.1074039E-02 -0.3608842E+03 -0.1554842E+04
  0.1130000E+02  0.7904607E+05  0.4063689E+04 -0.5435324E-02 -0.1144423E-02 -0.3608842E+03 -0.1708141E+04
  0.1140000E+02  0.7904607E+05  0.4674074E+04 -0.5435324E-02 -0.1234978E-02 -0.3608842E+03 -0.1820790E+04
  0.1150000E+02  0.7904607E+05  0.5132535E+04 -0.5435324E-02 -0.1347535E-02 -0.3608842E+03 -0.1891796E+04
  0.1160000E+02  0.7904607E+05  0.5437167E+04 -0.5435324E-02 -0.1480304E-02 -0.3608842E+03 -0.1920155E+04
  0.1170000E+02  0.7904607E+05  0.5589494E+04 -0.5435324E-02 -0.1627969E-02 -0.3608842E+03 -0.1905083E+04
  0.1180000E+02  0.7904607E+05  0.5594454E+04 -0.5435324E-02 -0.1782101E-02 -0.3608842E+03 -0.1846365E+04
  0.1190000E+02  0.7904607E+05  0.5460051E+04 -0.5435324E-02 -0.1931761E-02 -0.3608842E+03 -0.1744646E+04
  0.1200000E+02  0.7904607E+05  0.5197262E+04 -0.5435324E-02 -0.2064339E-02 -0.3608842E+03 -0.1601762E+04
  0.1210000E+02  0.7904607E+05  0.4819677E+04 -0.5435324E-02 -0.2166460E-02 -0.3608842E+03 -0.1420979E+04
  0.1220000E+02  0.7904607E+05  0.4343005E+04 -0.5435324E-02 -0.2224952E-02 -0.3608842E+03 -0.1207038E+04
  0.1230000E+02  0.7904607E+05  0.3784894E+04 -0.5435324E-02 -0.2227799E-02 -0.3608842E+03 -0.9662463E+03
  0.1240000E+02  0.7904607E+05  0.3164297E+04 -0.5435324E-02 -0.2164964E-02 -0.3608842E+03 -0.7062595E+03
  0.1250000E+02  0.7904607E+05  0.2501048E+04 -0.5435324E-02 -0.2029089E-02 -0.3608842E+03 -0.4358372E+03
  0.1260000E+02  0.7904607E+05  0.1814950E+04 -0.5435324E-02 -0.1816015E-02 -0.3608842E+03 -0.1643112E+03
  0.1270000E+02  0.7904607E+05  0.1125875E+04 -0.5435324E-02 -0.1525100E-02 -0.3608842E+03  0.9866721E+02
  0.1280000E+02  0.7904607E+05  0.4524091E+03 -0.5435324E-02 -0.1159298E-02 -0.3608842E+03  0.3439416E+03
  0.1290000E+02  0.7904607E+05 -0.1880612E+03 -0.5435324E-02 -0.7251042E-03 -0.3608842E+03  0.5631538E+03
  0.1300000E+02  0.7904607E+05 -0.7803854E+03 -0.5435324E-02 -0.2322754E-03 -0.3608842E+03  0.7494352E+03
  0.1310000E+02  0.7904607E+05 -0.1311461E+04 -0.5435324E-02  0.3066109E-03 -0.3608842E+03  0.8975917E+03
  0.1320000E+02  0.7904607E+05 -0.1771025E+04 -0.5435324E-02  0.8766057E-03 -0.3608842E+03  0.1004535E+04
  0.1330000E+02  0.7904607E+05 -0.2151618E+04 -0.5435324E-02  0.1461067E-02 -0.3608842E+03  0.1069333E+04
  0.1340000E+02  0.7904607E+05 -0.2448640E+04 -0.5435324E-02  0.2042212E-02 -0.3608842E+03  0.1093171E+04
  0.1350000E+02  0.7904607E+05 -0.2660398E+04 -0.5435324E-02  0.2601793E-02 -0.3608842E+03  0.1079178E+04
  0.1360000E+02  0.7904607E+05 -0.2787824E+04 -0.5435324E-02  0.3121726E-02 -0.3608842E+03  0.1032080E+04
  0.1370000E+02  0.7904607E+05 -0.2834173E+04 -0.5435324E-02  0.3584625E-02 -0.3608842E+03  0.9577565E+03
  0.1380000E+02  0.7904607E+05 -0.2804995E+04 -0.5435324E-02  0.3974414E-02 -0.3608842E+03  0.8628466E+03
  0.1390000E+02  0.7904607E+05 -0.2707268E+04 -0.5435324E-02  0.4276738E-02 -0.3608842E+03  0.7540860E+03
  0.1400000E+02  0.7904607E+05 -0.2549343E+04 -0.5435324E-02  0.4479466E-02 -0.3608842E+03  0.6379498E+03
  0.1410000E+02  0.7904607E+05 -0.2340300E+04 -0.5435324E-02  0.4573068E-02 -0.3608842E+03  0.5201443E+03
  0.1420000E+02  0.7904607E+05 -0.2089721E+04 -0.5435324E-02  0.4550918E-02 -0.3608842E+03  0.4053628E+03
  0.1430000E+02  0.7904607E+05 -0.1807253E+04 -0.5435324E-02  0.4409634E-02 -0.3608842E+03  0.2970520E+03
  0.1440000E+02  0.7904607E+05 -0.1502273E+04 -0.5435324E-02  0.4149285E-02 -0.3608842E+03  0.1973400E+03
  0.1450000E+02  0.7904607E+05 -0.1183692E+04 -0.5435324E-02  0.3773579E-02 -0.3608842E+03  0.1071105E+03
  0.1460000E+02  0.7904607E+05 -0.8599573E+03 -0.5435324E-02  0.3289934E-02 -0.3608842E+03  0.2624220E+02
  0.1470000E+02  0.7904607E+05 -0.5384659E+03 -0.5435324E-02  0.2709508E-02 -0.3608842E+03 -0.4627971E+02
  0.1480000E+02  0.7904607E+05 -0.2261633E+03 -0.5435324E-02  0.2047020E-02 -0.3608842E+03 -0.1118363E+03
  0.1490000E+02  0.7904607E+05  0.7096202E+02 -0.5435324E-02  0.1320572E-02 -0.3608842E+03 -0.1719945E+03
  0.1500000E+02  0.7904607E+05  0.3475776E+03 -0.5435324E-02  0.5511955E-03 -0.3608842E+03 -0.2280813E+03
  0.1510000E+02  0.7904607E+05  0.5992518E+03 -0.5435324E-02 -0.2377149E-03 -0.3608842E+03 -0.2810306E+03
  0.1520000E+02  0.7904607E+05  0.8219696E+03 -0.5435324E-02 -0.1021060E-02 -0.3608842E+03 -0.3310408E+03
  0.1530000E+02  0.7904607E+05  0.1012681E+04 -0.5435324E-02 -0.1772977E-02 -0.3608842E+03 -0.3776624E+03
  0.1540000E+02  0.7904607E+05  0.1168684E+04 -0.5435324E-02 -0.2467746E-02 -0.3608842E+03 -0.4196362E+03
  0.1550000E+02  0.7904607E+05  0.1288360E+04 -0.5435324E-02 -0.3080903E-02 -0.3608842E+03 -0.4552433E+03
  0.1560000E+02  0.7904607E+05  0.1370474E+04 -0.5435324E-02 -0.3590337E-02 -0.3608842E+03 -0.4822717E+03
  0.1570000E+02  0.7904607E+05  0.1414561E+04 -0.5435324E-02 -0.3977410E-02 -0.3608842E+03 -0.4983738E+03
  0.1580000E+02  0.7904607E+05  0.1421228E+04 -0.5435324E-02 -0.4227933E-02 -0.3608842E+03 -0.5014753E+03
  0.1590000E+02  0.7904607E+05  0.1391587E+04 -0.5435324E-02 -0.4333044E-02 -0.3608842E+03 -0.4898588E+03
Zone t="DoF    2",I=   160,F=POINT
  0.0000000E+00 -0.6761617E-02  0.1220485E-01  0.8423141E+05  0.1385293E+06  0.1842837E-02 -0.4565678E-02
  0.1000000E+00 -0.6761617E-02  0.1189211E-01  0.8423141E+05  0.1359928E+06  0.1842837E-02 -0.4466334E-02
  0.2000000E+00 -0.6761617E-02  0.1097026E-01  0.8423141E+05  0.1284947E+06  0.1842837E-02 -0.4172606E-02
  0.3000000E+00 -0.6761617E-02  0.9487456E-02  0.8423141E+05  0.1163638E+06  0.1842837E-02 -0.3697190E-02
  0.4000000E+00 -0.6761617E-02  0.7520704E-02  0.8423141E+05  0.1001293E+06  0.1842837E-02 -0.3060566E-02
  0.5000000E+00 -0.6761617E-02  0.5171246E-02  0.8423141E+05  0.8049364E+05  0.1842837E-02 -0.2290022E-02
  0.6000000E+00 -0.6761617E-02  0.2558550E-02  0.8423141E+05  0.5829738E+05  0.1842837E-02 -0.1418350E-02
  0.7000000E+00 -0.6761617E-02 -0.1866415E-03  0.8423141E+05  0.3447692E+05  0.1842837E-02 -0.4823264E-03
  0.8000000E+00 -0.6761617E-02 -0.2929742E-02  0.8423141E+05  0.1001822E+05  0.1842837E-02  0.4789780E-03
  0.9000000E+00 -0.6761617E-02 -0.5539710E-02  0.8423141E+05 -0.1409073E+05  0.1842837E-02  0.1425946E-02
  0.1000000E+01 -0.6761617E-02 -0.7895926E-02  0.8423141E+05 -0.3690671E+05  0.1842837E-02  0.2320129E-02
  0.1100000E+01 -0.6761617E-02 -0.9894135E-02  0.8423141E+05 -0.5757427E+05  0.1842837E-02  0.3125862E-02
  0.1200000E+01 -0.6761617E-02 -0.1145108E-01  0.8423141E+05 -0.7536282E+05  0.1842837E-02  0.3811665E-02
  0.1300000E+01 -0.6761617E-02 -0.1250766E-01  0.8423141E+05 -0.8969630E+05  0.1842837E-02  0.4351427E-02
  0.1400000E+01 -0.6761617E-02 -0.1303044E-01  0.8423141E+05 -0.1001735E+06  0.1842837E-02  0.4725275E-02
  0.1500000E+01 -0.6761617E-02 -0.1301160E-01  0.8423141E+05 -0.1065788E+06  0.1842837E-02  0.4920148E-02
  0.1600000E+01 -0.6761617E-02 -0.1246746E-01  0.8423141E+05 -0.1088831E+06  0.1842837E-02  0.4930049E-02
  0.1700000E+01 -0.6761617E-02 -0.1143570E-01  0.8423141E+05 -0.1072348E+06  0.1842837E-02  0.4755995E-02
  0.1800000E+01 -0.6761617E-02 -0.9971821E-02  0.8423141E+05 -0.1019428E+06  0.1842837E-02  0.4405706E-02
  0.1900000E+01 -0.6761617E-02 -0.8144950E-02  0.8423141E+05 -0.9345157E+05  0.1842837E-02  0.3893051E-02
  0.2000000E+01 -0.6761617E-02 -0.6033518E-02  0.8423141E+05 -0.8231172E+05  0.1842837E-02  0.3237308E-02
  0.2100000E+01 -0.6761617E-02 -0.3721077E-02  0.8423141E+05 -0.6914645E+05  0.1842837E-02  0.2462311E-02
  0.2200000E+01 -0.6761617E-02 -0.1292509E-02  0.8423141E+05 -0.5461695E+05  0.1842837E-02  0.1595483E-02
  0.2300000E+01 -0.6761617E-02  0.1169145E-02  0.8423141E+05 -0.3938833E+05  0.1842837E-02  0.6668289E-03
  0.2400000E+01 -0.6761617E-02  0.3585100E-02  0.8423141E+05 -0.2409805E+05  0.1842837E-02 -0.2920635E-03
  0.2500000E+01 -0.6761617E-02  0.5882506E-02  0.8423141E+05 -0.9328605E+04  0.1842837E-02 -0.1249015E-02
  0.2600000E+01 -0.6761617E-02  0.7995486E-02  0.8423141E+05  0.4414957E+04  0.1842837E-02 -0.2172216E-02
  0.2700000E+01 -0.6761617E-02  0.9865578E-02  0.8423141E+05  0.1672096E+05  0.1842837E-02 -0.3031122E-02
  0.2800000E+01 -0.6761617E-02  0.1144188E-01  0.8423141E+05  0.2728107E+05  0.1842837E-02 -0.3797307E-02
  0.2900000E+01 -0.6761617E-02  0.1268098E-01  0.8423141E+05  0.3589352E+05  0.1842837E-02 -0.4445253E-02
  0.3000000E+01 -0.6761617E-02  0.1354699E-01  0.8423141E+05  0.4246049E+05  0.1842837E-02 -0.4953075E-02
  0.3100000E+01 -0.6761617E-02  0.1401173E-01  0.8423141E+05  0.4698060E+05  0.1842837E-02 -0.5303195E-02
  0.3200000E+01 -0.6761617E-02  0.1405531E-01  0.8423141E+05  0.4953673E+05  0.1842837E-02 -0.5482920E-02
  0.3300000E+01 -0.6761617E-02  0.1366697E-01  0.8423141E+05  0.5028128E+05  0.1842837E-02 -0.5484957E-02
  0.3400000E+01 -0.6761617E-02  0.1284627E-01  0.8423141E+05  0.4941941E+05  0.1842837E-02 -0.5307791E-02
  0.3500000E+01 -0.6761617E-02  0.1160452E-01  0.8423141E+05  0.4719185E+05  0.1842837E-02 -0.4955947E-02
  0.3600000E+01 -0.6761617E-02  0.9966074E-02  0.8423141E+05  0.4385830E+05  0.1842837E-02 -0.4440069E-02
  0.3700000E+01 -0.6761617E-02  0.7969551E-02  0.8423141E+05  0.3968210E+05  0.1842837E-02 -0.3776819E-02
  0.3800000E+01 -0.6761617E-02  0.5668471E-02  0.8423141E+05  0.3491739E+05  0.1842837E-02 -0.2988535E-02
  0.3900000E+01 -0.6761617E-02  0.3131206E-02  0.8423141E+05  0.2979875E+05  0.1842837E-02 -0.2102646E-02
  0.4000000E+01 -0.6761617E-02  0.4400741E-03  0.8423141E+05  0.2453388E+05  0.1842837E-02 -0.1150854E-02
  0.4100000E+01 -0.6761617E-02 -0.2310709E-02  0.8423141E+05  0.1929914E+05  0.1842837E-02 -0.1680438E-03
  0.4200000E+01 -0.6761617E-02 -0.5018101E-02  0.8423141E+05  0.1423780E+05  0.1842837E-02  0.8090248E-03
  0.4300000E+01 -0.6761617E-02 -0.7574283E-02  0.8423141E+05  0.9460682E+04  0.1842837E-02  0.1743175E-02
  0.4400000E+01 -0.6761617E-02 -0.9871719E-02  0.8423141E+05  0.5048403E+04  0.1842837E-02  0.2598455E-02
  0.4500000E+01 -0.6761617E-02 -0.1180863E-01  0.8423141E+05  0.1055237E+04  0.1842837E-02  0.3341759E-02
  0.4600000E+01 -0.6761617E-02 -0.1329481E-01  0.8423141E+05 -0.2486598E+04  0.1842837E-02  0.3944439E-02
  0.4700000E+01 -0.6761617E-02 -0.1425723E-01  0.8423141E+05 -0.5562257E+04  0.1842837E-02  0.4383782E-02
  0.4800000E+01 -0.6761617E-02 -0.1464509E-01  0.8423141E+05 -0.8169941E+04  0.1842837E-02  0.4644228E-02
  0.4900000E+01 -0.6761617E-02 -0.1443379E-01  0.8423141E+05 -0.1031702E+05  0.1842837E-02  0.4718286E-02
  0.5000000E+01 -0.6761617E-02 -0.1362759E-01  0.8423141E+05 -0.1201718E+05  0.1842837E-02  0.4607054E-02
  0.5100000E+01 -0.6761617E-02 -0.1226050E-01  0.8423141E+05 -0.1328810E+05  0.1842837E-02  0.4320271E-02
  0.5200000E+01 -0.6761617E-02 -0.1039543E-01  0.8423141E+05 -0.1415031E+05  0.1842837E-02  0.3875908E-02
  0.5300000E+01 -0.6761617E-02 -0.8121499E-02  0.8423141E+05 -0.1462658E+05  0.1842837E-02  0.3299283E-02
  0.5400000E+01 -0.6761617E-02 -0.5549443E-02  0.8423141E+05 -0.1474211E+05  0.1842837E-02  0.2621742E-02
  0.5500000E+01 -0.6761617E-02 -0.2805661E-02  0.8423141E+05 -0.1452475E+05  0.1842837E-02  0.1878960E-02
  0.5600000E+01 -0.6761617E-02 -0.2504723E-04  0.8423141E+05 -0.1400561E+05  0.1842837E-02  0.1108976E-02
  0.5700000E+01 -0.6761617E-02  0.2656795E-02  0.8423141E+05 -0.1321949E+05  0.1842837E-02  0.3500750E-03
  0.5800000E+01 -0.6761617E-02  0.5111423E-02  0.8423141E+05 -0.1220496E+05  0.1842837E-02 -0.3613420E-03
  0.5900000E+01 -0.6761617E-02  0.7225140E-02  0.8423141E+05 -0.1100419E+05  0.1842837E-02 -0.9928088E-03
  0.6000000E+01 -0.6761617E-02  0.8905478E-02  0.8423141E+05 -0.9662144E+04  0.1842837E-02 -0.1517562E-02
  0.6100000E+01 -0.6761617E-02  0.1008631E-01  0.8423141E+05 -0.8225602E+04  0.1842837E-02 -0.1915947E-02
  0.6200000E+01 -0.6761617E-02  0.1073119E-01  0.8423141E+05 -0.6741581E+04  0.1842837E-02 -0.2176367E-02
  0.6300000E+01 -0.6761617E-02  0.1083463E-01  0.8423141E+05 -0.5255733E+04  0.1842837E-02 -0.2295695E-02
  0.6400000E+01 -0.6761617E-02  0.1042141E-01  0.8423141E+05 -0.3810589E+04  0.1842837E-02 -0.2279142E-02
  0.6500000E+01 -0.6761617E-02  0.9543806E-02  0.8423141E+05 -0.2443650E+04  0.1842837E-02 -0.2139590E-02
  0.6600000E+01 -0.6761617E-02  0.8277052E-02  0.8423141E+05 -0.1186289E+04  0.1842837E-02 -0.1896406E-02
  0.6700000E+01 -0.6761617E-02  0.6713495E-02  0.8423141E+05 -0.6242893E+02  0.1842837E-02 -0.1573886E-02
  0.6800000E+01 -0.6761617E-02  0.4955826E-02  0.8423141E+05  0.9119639E+03  0.1842837E-02 -0.1199415E-02
  0.6900000E+01 -0.6761617E-02  0.3109861E-02  0.8423141E+05  0.1728895E+04  0.1842837E-02 -0.8014653E-03
  0.7000000E+01 -0.6761617E-02  0.1277560E-02  0.8423141E+05  0.2387940E+04  0.1842837E-02 -0.4076096E-03
  0.7100000E+01 -0.6761617E-02 -0.4492853E-03  0.8423141E+05  0.2895333E+04  0.1842837E-02 -0.4268884E-04
  0.7200000E+01 -0.6761617E-02 -0.1994227E-02  0.8423141E+05  0.3262609E+04  0.1842837E-02  0.2727438E-03
  0.7300000E+01 -0.6761617E-02 -0.3299831E-02  0.8423141E+05  0.3505172E+04  0.1842837E-02  0.5235755E-03
  0.7400000E+01 -0.6761617E-02 -0.4329715E-02  0.8423141E+05  0.3640468E+04  0.1842837E-02  0.7008369E-03
  0.7500000E+01 -0.6761617E-02 -0.5068766E-02  0.8423141E+05  0.3686596E+04  0.1842837E-02  0.8018700E-03
  0.7600000E+01 -0.6761617E-02 -0.5521717E-02  0.8423141E+05  0.3660728E+04  0.1842837E-02  0.8300138E-03
  0.7700000E+01 -0.6761617E-02 -0.5710300E-02  0.8423141E+05  0.3578079E+04  0.1842837E-02  0.7938212E-03
  0.7800000E+01 -0.6761617E-02 -0.5669228E-02  0.8423141E+05  0.3451053E+04  0.1842837E-02  0.7058970E-03
  0.7900000E+01 -0.6761617E-02 -0.5441550E-02  0.8423141E+05  0.3289017E+04  0.1842837E-02  0.5814680E-03
  0.8000000E+01 -0.6761617E-02 -0.5073773E-02  0.8423141E+05  0.3098166E+04  0.1842837E-02  0.4368301E-03
  0.8100000E+01 -0.6761617E-02 -0.4611131E-02  0.8423141E+05  0.2882148E+04  0.1842837E-02  0.2877732E-03
  0.8200000E+01 -0.6761617E-02 -0.4093638E-02  0.8423141E+05  0.2642546E+04  0.1842837E-02  0.1481864E-03
  0.8300000E+01 -0.6761617E-02 -0.3552971E-02  0.8423141E+05  0.2379847E+04  0.1842837E-02  0.2888556E-04
  0.8400001E+01 -0.6761617E-02 -0.3010719E-02  0.8423141E+05  0.2094281E+04  0.1842837E-02 -0.6316320E-04
  0.8500000E+01 -0.6761617E-02 -0.2477855E-02  0.8423141E+05  0.1786780E+04  0.1842837E-02 -0.1252200E-03
  0.8600000E+01 -0.6761617E-02 -0.1955506E-02  0.8423141E+05  0.1459631E+04  0.1842837E-02 -0.1587053E-03
  0.8700000E+01 -0.6761617E-02 -0.1436963E-02  0.8423141E+05  0.1116925E+04  0.1842837E-02 -0.1686891E-03
  0.8800000E+01 -0.6761617E-02 -0.9104165E-03  0.8423141E+05  0.7647854E+03  0.1842837E-02 -0.1630331E-03
  0.8900001E+01 -0.6761617E-02 -0.3623516E-03  0.8423141E+05  0.4113978E+03  0.1842837E-02 -0.1512627E-03
  0.9000000E+01 -0.6761617E-02  0.2189430E-03  0.8423141E+05  0.6628102E+02  0.1842837E-02 -0.1432461E-03
  0.9100000E+01 -0.6761617E-02  0.8402466E-03  0.8423141E+05 -0.2599103E+03  0.1842837E-02 -0.1479166E-03
  0.9200000E+01 -0.6761617E-02  0.1500683E-02  0.8423141E+05 -0.5565253E+03  0.1842837E-02 -0.1720305E-03
  0.9300000E+01 -0.6761617E-02  0.2190161E-02  0.8423141E+05 -0.8135706E+03  0.1842837E-02 -0.2192211E-03
  0.9400001E+01 -0.6761617E-02  0.2888762E-02  0.8423141E+05 -0.1022663E+04  0.1842837E-02 -0.2893613E-03
  0.9500000E+01 -0.6761617E-02  0.3567480E-02  0.8423141E+05 -0.1177717E+04  0.1842837E-02 -0.3783408E-03
  0.9600000E+01 -0.6761617E-02  0.4190073E-02  0.8423141E+05 -0.1275584E+04  0.1842837E-02 -0.4782888E-03
  0.9700000E+01 -0.6761617E-02  0.4715955E-02  0.8423141E+05 -0.1316211E+04  0.1842837E-02 -0.5782236E-03
  0.9800000E+01 -0.6761617E-02  0.5103885E-02  0.8423141E+05 -0.1302843E+04  0.1842837E-02 -0.6650827E-03
  0.9900001E+01 -0.6761617E-02  0.5315981E-02  0.8423141E+05 -0.1241538E+04  0.1842837E-02 -0.7250315E-03
  0.1000000E+02 -0.6761617E-02  0.5321850E-02  0.8423141E+05 -0.1140967E+04  0.1842837E-02 -0.7449490E-03
  0.1010000E+02 -0.6761617E-02  0.5102200E-02  0.8423141E+05 -0.1011368E+04  0.1842837E-02 -0.7139194E-03
  0.1020000E+02 -0.6761617E-02  0.4651748E-02  0.8423141E+05 -0.8640091E+03  0.1842837E-02 -0.6246109E-03
  0.1030000E+02 -0.6761617E-02  0.3981017E-02  0.8423141E+05 -0.7099828E+03  0.1842837E-02 -0.4743999E-03
  0.1040000E+02 -0.6761617E-02  0.3116749E-02  0.8423141E+05 -0.5595897E+03  0.1842837E-02 -0.2660815E-03
  0.1050000E+02 -0.6761617E-02  0.2100983E-02  0.8423141E+05 -0.4213936E+03  0.1842837E-02 -0.8138725E-05
  0.1060000E+02 -0.6761617E-02  0.9885748E-03  0.8423141E+05 -0.3018298E+03  0.1842837E-02  0.2855503E-03
  0.1070000E+02 -0.6761617E-02 -0.1562966E-03  0.8423141E+05 -0.2046343E+03  0.1842837E-02  0.5964669E-03
  0.1080000E+02 -0.6761617E-02 -0.1264899E-02  0.8423141E+05 -0.1310598E+03  0.1842837E-02  0.9027682E-03
  0.1090000E+02 -0.6761617E-02 -0.2268985E-02  0.8423141E+05 -0.7970800E+02  0.1842837E-02  0.1180890E-02
  0.1100000E+02 -0.6761617E-02 -0.3106255E-02  0.8423141E+05 -0.4710825E+02  0.1842837E-02  0.1407474E-02
  0.1110000E+02 -0.6761617E-02 -0.3725453E-02  0.8423141E+05 -0.2835592E+02  0.1842837E-02  0.1561379E-02
  0.1120000E+02 -0.6761617E-02 -0.4090601E-02  0.8423141E+05 -0.1766596E+02  0.1842837E-02  0.1625564E-02
  0.1130000E+02 -0.6761617E-02 -0.4184303E-02  0.8423141E+05 -0.9043427E+01  0.1842837E-02  0.1588791E-02
  0.1140000E+02 -0.6761617E-02 -0.4009414E-02  0.8423141E+05  0.2797645E+01  0.1842837E-02  0.1446862E-02
  0.1150000E+02 -0.6761617E-02 -0.3589262E-02  0.8423141E+05  0.2202361E+02  0.1842837E-02  0.1203370E-02
  0.1160000E+02 -0.6761617E-02 -0.2966050E-02  0.8423141E+05  0.5116443E+02  0.1842837E-02  0.8697930E-03
  0.1170000E+02 -0.6761617E-02 -0.2197812E-02  0.8423141E+05  0.9089105E+02  0.1842837E-02  0.4649806E-03