VARIABLES="w (rad/s)"
"abs(F   1   1)" "angle(F   1   1)"
"abs(F   1   2)" "angle(F   1   2)"
"abs(F   1   3)" "angle(F   1   3)"
Zone t="FKforce - beta =   0.000",I=    32,F=POINT
  0.1000000E+00  0.1234236E+03 -0.1570802E+01  0.1815877E+06  0.1680700E-10  0.5735002E+03 -0.1570796E+01
  0.2000000E+00  0.4929316E+03 -0.1570797E+01  0.1812161E+06  0.3494718E-12  0.2290988E+04 -0.1570796E+01
  0.3000000E+00  0.1106226E+04 -0.1570797E+01  0.1805941E+06 -0.9299092E-10  0.5143369E+04 -0.1570796E+01
  0.4000000E+00  0.1959437E+04 -0.1570796E+01  0.1797168E+06 -0.3639954E-10  0.9115259E+04 -0.1570797E+01
  0.5000000E+00  0.3047081E+04 -0.1570796E+01  0.1785789E+06  0.1073912E-09  0.1418465E+05 -0.1570796E+01
  0.6000001E+00  0.4361986E+04 -0.1570796E+01  0.1771729E+06  0.8459302E-09  0.2032246E+05 -0.1570796E+01
  0.7000000E+00  0.5895203E+04 -0.1570797E+01  0.1754893E+06  0.5655143E-10  0.2749189E+05 -0.1570796E+01
  0.8000001E+00  0.7635884E+04 -0.1570796E+01  0.1735179E+06  0.8518980E-10  0.3564800E+05 -0.1570796E+01
  0.9000000E+00  0.9571214E+04 -0.1570796E+01  0.1712480E+06 -0.1282951E-08  0.4473660E+05 -0.1570796E+01
  0.1000000E+01  0.1168625E+05 -0.1570796E+01  0.1686668E+06  0.1068289E-08  0.5469351E+05 -0.1570796E+01
  0.1100000E+01  0.1396382E+05 -0.1570796E+01  0.1657615E+06  0.5595075E-09  0.6544428E+05 -0.1570796E+01
  0.1200000E+01  0.1638433E+05 -0.1570796E+01  0.1625192E+06  0.6704271E-09  0.7690210E+05 -0.1570796E+01
  0.1300000E+01  0.1892577E+05 -0.1570796E+01  0.1589268E+06  0.4012979E-09  0.8896835E+05 -0.1570796E+01
  0.1400000E+01  0.2156350E+05 -0.1570796E+01  0.1549715E+06  0.2995395E-08  0.1015308E+06 -0.1570796E+01
  0.1500000E+01  0.2427026E+05 -0.1570796E+01  0.1506422E+06 -0.3576860E-09  0.1144638E+06 -0.1570796E+01
  0.1600000E+01  0.2701607E+05 -0.1570796E+01  0.1459289E+06  0.3031516E-08  0.1276268E+06 -0.1570796E+01
  0.1700000E+01  0.2976830E+05 -0.1570796E+01  0.1408240E+06  0.6469898E-08  0.1408653E+06 -0.1570796E+01
  0.1800000E+01  0.3249171E+05 -0.1570796E+01  0.1353228E+06 -0.1180704E-07  0.1540104E+06 -0.1570796E+01
  0.1900000E+01  0.3514855E+05 -0.1570796E+01  0.1294247E+06  0.8224243E-08  0.1668792E+06 -0.1570796E+01
  0.2000000E+01  0.3769911E+05 -0.1570796E+01  0.1231327E+06 -0.1437392E-07  0.1792761E+06 -0.1570796E+01
  0.2100000E+01  0.4010142E+05 -0.1570796E+01  0.1164557E+06  0.2222333E-08  0.1909949E+06 -0.1570796E+01
  0.2200000E+01  0.4231241E+05 -0.1570796E+01  0.1094085E+06  0.1772529E-07  0.2018192E+06 -0.1570796E+01
  0.2300000E+01  0.4428812E+05 -0.1570796E+01  0.1020127E+06 -0.2177870E-07  0.2115273E+06 -0.1570796E+01
  0.2400000E+01  0.4598429E+05 -0.1570796E+01  0.9429735E+05  0.1391868E-08  0.2198950E+06 -0.1570796E+01
  0.2500000E+01  0.4735768E+05 -0.1570796E+01  0.8629988E+05 -0.7906777E-08  0.2266995E+06 -0.1570796E+01
  0.2600000E+01  0.4836675E+05 -0.1570796E+01  0.7806645E+05  0.3141087E-08  0.2317257E+06 -0.1570796E+01
  0.2700000E+01  0.4897266E+05 -0.1570796E+01  0.6965218E+05  0.3953551E-09  0.2347710E+06 -0.1570796E+01
  0.2800000E+01  0.4914076E+05 -0.1570796E+01  0.6112114E+05  0.2990514E-07  0.2356528E+06 -0.1570796E+01
  0.2900000E+01  0.4884197E+05 -0.1570796E+01  0.5254667E+05  0.3790891E-08  0.2342142E+06 -0.1570796E+01
  0.3000000E+01  0.4805416E+05 -0.1570796E+01  0.4401028E+05 -0.1228111E-07  0.2303346E+06 -0.1570796E+01
  0.3100000E+01  0.4676333E+05 -0.1570796E+01  0.3560123E+05  0.4859619E-07  0.2239337E+06 -0.1570796E+01
  0.3200000E+01  0.4496541E+05 -0.1570796E+01  0.2741503E+05 -0.2338961E-07  0.2149819E+06 -0.1570796E+01
