VARIABLES="w (rad/s)"
"abs(F   1   1)" "angle(F   1   1)"
"abs(F   1   2)" "angle(F   1   2)"
"abs(F   1   3)" "angle(F   1   3)"
Zone t="Diffraction force - beta =   0.000 deg",I=    32,F=POINT
  0.1000000E+00  0.2010939E+02 -0.1570796E+01  0.1214534E+03 -0.3137174E+01  0.8089079E+02 -0.1570796E+01
  0.2000000E+00  0.8004910E+02 -0.1570796E+01  0.4924198E+03 -0.3124342E+01  0.3220155E+03 -0.1570796E+01
  0.3000000E+00  0.1789421E+03 -0.1570791E+01  0.1125127E+04 -0.3104037E+01  0.7192474E+03 -0.1570791E+01
  0.4000000E+00  0.3148358E+03 -0.1570770E+01  0.2028810E+04 -0.3077395E+01  0.1265941E+04 -0.1570769E+01
  0.5000000E+00  0.4844836E+03 -0.1570697E+01  0.3205932E+04 -0.3045595E+01  0.1948053E+04 -0.1570693E+01
  0.6000001E+00  0.6841594E+03 -0.1570506E+01  0.4651300E+04 -0.3009821E+01  0.2750465E+04 -0.1570495E+01
  0.7000000E+00  0.9122615E+03 -0.1570085E+01  0.6351450E+04 -0.2971203E+01  0.3668816E+04 -0.1570057E+01
  0.8000001E+00  0.1159282E+04 -0.1569257E+01  0.8288893E+04 -0.2930915E+01  0.4662494E+04 -0.1569195E+01
  0.9000000E+00  0.1424122E+04 -0.1567789E+01  0.1042819E+05 -0.2889685E+01  0.5727607E+04 -0.1567665E+01
  0.1000000E+01  0.1695731E+04 -0.1565367E+01  0.1274315E+05 -0.2848548E+01  0.6819887E+04 -0.1565138E+01
  0.1100000E+01  0.1970245E+04 -0.1561631E+01  0.1518462E+05 -0.2807812E+01  0.7923486E+04 -0.1561236E+01
  0.1200000E+01  0.2232359E+04 -0.1556151E+01  0.1773249E+05 -0.2768629E+01  0.8973149E+04 -0.1555497E+01
  0.1300000E+01  0.2477411E+04 -0.1548546E+01  0.2033017E+05 -0.2730757E+01  0.9955489E+04 -0.1547519E+01
  0.1400000E+01  0.2688899E+04 -0.1538420E+01  0.2294844E+05 -0.2694865E+01  0.1079518E+05 -0.1536854E+01
  0.1500000E+01  0.2847934E+04 -0.1525458E+01  0.2556250E+05 -0.2661519E+01  0.1141605E+05 -0.1523133E+01
  0.1600000E+01  0.2940542E+04 -0.1509638E+01  0.2812388E+05 -0.2630126E+01  0.1176156E+05 -0.1506276E+01
  0.1700000E+01  0.2948099E+04 -0.1491173E+01  0.3060707E+05 -0.2601045E+01  0.1175208E+05 -0.1486393E+01
  0.1800000E+01  0.2846236E+04 -0.1470582E+01  0.3299115E+05 -0.2574852E+01  0.1128146E+05 -0.1463795E+01
  0.1900000E+01  0.2613525E+04 -0.1449182E+01  0.3524579E+05 -0.2551178E+01  0.1026145E+05 -0.1439494E+01
  0.2000000E+01  0.2235751E+04 -0.1430263E+01  0.3734583E+05 -0.2530042E+01  0.8630449E+04 -0.1416195E+01
  0.2100000E+01  0.1700811E+04 -0.1422332E+01  0.3926512E+05 -0.2511258E+01  0.6333413E+04 -0.1401149E+01
  0.2200000E+01  0.1002401E+04 -0.1460940E+01  0.4098114E+05 -0.2494526E+01  0.3338315E+04 -0.1430172E+01
  0.2300000E+01  0.2099018E+03 -0.2255638E+01  0.4247289E+05 -0.2480103E+01  0.6233893E+03  0.2709316E+01
  0.2400000E+01  0.9429832E+03  0.2120821E+01  0.4372147E+05 -0.2467754E+01  0.4871320E+04  0.2017615E+01
  0.2500000E+01  0.2123085E+04  0.2050503E+01  0.4470998E+05 -0.2457293E+01  0.9934199E+04  0.2006340E+01
  0.2600000E+01  0.3443290E+04  0.2052459E+01  0.4541857E+05 -0.2448970E+01  0.1557872E+05  0.2024948E+01
  0.2700000E+01  0.4877567E+04  0.2069342E+01  0.4583093E+05 -0.2442702E+01  0.2171016E+05  0.2049945E+01
  0.2800000E+01  0.6396463E+04  0.2090905E+01  0.4593963E+05 -0.2438309E+01  0.2820733E+05  0.2076541E+01
  0.2900000E+01  0.7973020E+04  0.2112994E+01  0.4573102E+05 -0.2435849E+01  0.3495856E+05  0.2102220E+01
  0.3000000E+01  0.9578337E+04  0.2134258E+01  0.4519424E+05 -0.2435473E+01  0.4183848E+05  0.2126345E+01
  0.3100000E+01  0.1118363E+05  0.2153566E+01  0.4432000E+05 -0.2437292E+01  0.4872512E+05  0.2148024E+01
  0.3200000E+01  0.1275889E+05  0.2171079E+01  0.4311590E+05 -0.2441340E+01  0.5548532E+05  0.2167709E+01
