VARIABLES="w (rad/s)"
"abs(F   1   1)" "angle(F   1   1)"
"abs(F   1   2)" "angle(F   1   2)"
"abs(F   1   3)" "angle(F   1   3)"
Zone t="Diffraction force - beta =   0.000 deg",I=    32,F=POINT
  0.1000000E+00  0.1637785E+03 -0.1570796E+01  0.7675305E+03 -0.3133134E+01  0.7393462E+03 -0.1570796E+01
  0.2000000E+00  0.6512976E+03 -0.1570793E+01  0.3134581E+04 -0.3109124E+01  0.2939008E+04 -0.1570793E+01
  0.3000000E+00  0.1446763E+04 -0.1570760E+01  0.7191505E+04 -0.3072374E+01  0.6531512E+04 -0.1570759E+01
  0.4000000E+00  0.2524953E+04 -0.1570598E+01  0.1295897E+05 -0.3026008E+01  0.1140355E+05 -0.1570591E+01
  0.5000000E+00  0.3851594E+04 -0.1570065E+01  0.2036821E+05 -0.2973157E+01  0.1740530E+05 -0.1570039E+01
  0.6000001E+00  0.5379552E+04 -0.1568698E+01  0.2924716E+05 -0.2916652E+01  0.2432606E+05 -0.1568623E+01
  0.7000000E+00  0.7049420E+04 -0.1565761E+01  0.3934125E+05 -0.2858968E+01  0.3189097E+05 -0.1565576E+01
  0.8000001E+00  0.8815861E+04 -0.1560244E+01  0.5030079E+05 -0.2801712E+01  0.3991779E+05 -0.1559853E+01
  0.9000000E+00  0.1055899E+05 -0.1550880E+01  0.6184940E+05 -0.2746998E+01  0.4783839E+05 -0.1550122E+01
  0.1000000E+01  0.1219676E+05 -0.1536366E+01  0.7357927E+05 -0.2695149E+01  0.5529046E+05 -0.1535015E+01
  0.1100000E+01  0.1353794E+05 -0.1515426E+01  0.8525717E+05 -0.2647752E+01  0.6136230E+05 -0.1513144E+01
  0.1200000E+01  0.1444216E+05 -0.1487481E+01  0.9652961E+05 -0.2604225E+01  0.6543305E+05 -0.1483843E+01
  0.1300000E+01  0.1463937E+05 -0.1452121E+01  0.1071769E+06 -0.2565546E+01  0.6617940E+05 -0.1446399E+01
  0.1400000E+01  0.1390437E+05 -0.1410466E+01  0.1169916E+06 -0.2531861E+01  0.6256214E+05 -0.1401556E+01
  0.1500000E+01  0.1204525E+05 -0.1365422E+01  0.1257396E+06 -0.2502647E+01  0.5365493E+05 -0.1351238E+01
  0.1600000E+01  0.8911814E+04 -0.1324052E+01  0.1332306E+06 -0.2477659E+01  0.3871064E+05 -0.1299409E+01
  0.1700000E+01  0.4452647E+04 -0.1318902E+01  0.1393018E+06 -0.2456790E+01  0.1742935E+05 -0.1261678E+01
  0.1800000E+01  0.1400495E+04  0.2316774E+01  0.1438022E+06 -0.2439887E+01  0.1001555E+05  0.2042434E+01
  0.1900000E+01  0.8209523E+04  0.2093314E+01  0.1466100E+06 -0.2426826E+01  0.4280658E+05  0.2047933E+01
  0.2000000E+01  0.1595998E+05  0.2116803E+01  0.1476075E+06 -0.2417623E+01  0.7989821E+05  0.2092979E+01
  0.2100000E+01  0.2431515E+05  0.2152647E+01  0.1467070E+06 -0.2412320E+01  0.1199487E+06  0.2137461E+01
  0.2200000E+01  0.3296139E+05  0.2188255E+01  0.1438704E+06 -0.2410899E+01  0.1614721E+06  0.2178123E+01
  0.2300000E+01  0.4158570E+05  0.2220263E+01  0.1390534E+06 -0.2413757E+01  0.2029672E+06  0.2213714E+01
  0.2400000E+01  0.4987265E+05  0.2247873E+01  0.1322782E+06 -0.2421307E+01  0.2429073E+06  0.2244175E+01
  0.2500000E+01  0.5751636E+05  0.2270966E+01  0.1236373E+06 -0.2434240E+01  0.2797955E+06  0.2269727E+01
  0.2600000E+01  0.6421973E+05  0.2289271E+01  0.1132116E+06 -0.2453935E+01  0.3121674E+06  0.2290279E+01
  0.2700000E+01  0.6969933E+05  0.2303122E+01  0.1011930E+06 -0.2482457E+01  0.3386187E+06  0.2306289E+01
  0.2800000E+01  0.7370934E+05  0.2312515E+01  0.8775786E+05 -0.2524344E+01  0.3579157E+06  0.2317827E+01
  0.2900000E+01  0.7602109E+05  0.2317468E+01  0.7304264E+05 -0.2590656E+01  0.3689273E+06  0.2324973E+01
  0.3000000E+01  0.7645745E+05  0.2317601E+01  0.5438871E+05 -0.2757938E+01  0.3707480E+06  0.2327415E+01
  0.3100000E+01  0.7489500E+05  0.2312408E+01  0.4923685E+05 -0.2643833E+01  0.3627333E+06  0.2324745E+01
  0.3200000E+01  0.7129508E+05  0.2300908E+01  0.3363538E+05 -0.2908170E+01  0.3446867E+06  0.2316022E+01
