VARIABLES="w (rad/s)"
"abs(F   1   1)" "angle(F   1   1)"
"abs(F   1   2)" "angle(F   1   2)"
"abs(F   1   3)" "angle(F   1   3)"
Zone t="Diffraction force - beta =   0.000 deg",I=   100,F=POINT
  0.1000000E+00  0.2903619E-02 -0.1570796E+01  0.3128973E-01 -0.3141332E+01  0.9007068E-02 -0.1570796E+01
  0.3010101E+00  0.2624257E-01 -0.1570796E+01  0.2845275E+00 -0.3139240E+01  0.8140491E-01 -0.1570796E+01
  0.5020202E+00  0.7297806E-01 -0.1570796E+01  0.7956557E+00 -0.3135108E+01  0.2263791E+00 -0.1570796E+01
  0.7030303E+00  0.1427205E+00 -0.1570796E+01  0.1570902E+01 -0.3129027E+01  0.4427212E+00 -0.1570796E+01
  0.9040404E+00  0.2349353E+00 -0.1570795E+01  0.2615144E+01 -0.3121097E+01  0.7287731E+00 -0.1570796E+01
  0.1105051E+01  0.3497409E+00 -0.1570794E+01  0.3935883E+01 -0.3111461E+01  0.1084899E+01 -0.1570793E+01
  0.1306061E+01  0.4863798E+00 -0.1570788E+01  0.5535446E+01 -0.3100235E+01  0.1508753E+01 -0.1570789E+01
  0.1507071E+01  0.6416996E+00 -0.1570778E+01  0.7418751E+01 -0.3087573E+01  0.1990559E+01 -0.1570778E+01
  0.1708081E+01  0.8204874E+00 -0.1570758E+01  0.9584017E+01 -0.3073596E+01  0.2545143E+01 -0.1570757E+01
  0.1909091E+01  0.1013157E+01 -0.1570720E+01  0.1203618E+02 -0.3058491E+01  0.3142809E+01 -0.1570721E+01
  0.2110101E+01  0.1229791E+01 -0.1570660E+01  0.1476256E+02 -0.3042328E+01  0.3814782E+01 -0.1570660E+01
  0.2311111E+01  0.1454994E+01 -0.1570563E+01  0.1776734E+02 -0.3025318E+01  0.4513354E+01 -0.1570563E+01
  0.2512121E+01  0.1701055E+01 -0.1570416E+01  0.2104185E+02 -0.3007587E+01  0.5276618E+01 -0.1570416E+01
  0.2713131E+01  0.1960291E+01 -0.1570201E+01  0.2456491E+02 -0.2989186E+01  0.6080720E+01 -0.1570201E+01
  0.2914141E+01  0.2223841E+01 -0.1569891E+01  0.2834581E+02 -0.2970393E+01  0.6898237E+01 -0.1569892E+01
  0.3115151E+01  0.2503291E+01 -0.1569465E+01  0.3235152E+02 -0.2951187E+01  0.7765055E+01 -0.1569465E+01
  0.3316161E+01  0.2794965E+01 -0.1568891E+01  0.3657313E+02 -0.2931726E+01  0.8669744E+01 -0.1568892E+01
  0.3517171E+01  0.3083583E+01 -0.1568126E+01  0.4099672E+02 -0.2912142E+01  0.9564987E+01 -0.1568126E+01
  0.3718182E+01  0.3373358E+01 -0.1567128E+01  0.4560690E+02 -0.2892549E+01  0.1046381E+02 -0.1567128E+01
  0.3919192E+01  0.3668880E+01 -0.1565859E+01  0.5038192E+02 -0.2873012E+01  0.1138043E+02 -0.1565859E+01
  0.4120202E+01  0.3967206E+01 -0.1564273E+01  0.5528603E+02 -0.2853497E+01  0.1230573E+02 -0.1564273E+01
  0.4321212E+01  0.4255529E+01 -0.1562299E+01  0.6032436E+02 -0.2834263E+01  0.1319998E+02 -0.1562300E+01
  0.4522222E+01  0.4525523E+01 -0.1559872E+01  0.6547473E+02 -0.2815372E+01  0.1403739E+02 -0.1559872E+01
  0.4723232E+01  0.4786036E+01 -0.1556940E+01  0.7070264E+02 -0.2796766E+01  0.1484539E+02 -0.1556941E+01
  0.4924242E+01  0.5036828E+01 -0.1553467E+01  0.7599449E+02 -0.2778529E+01  0.1562319E+02 -0.1553467E+01
  0.5125252E+01  0.5269670E+01 -0.1549385E+01  0.8132963E+02 -0.2760703E+01  0.1634528E+02 -0.1549385E+01
  0.5326262E+01  0.5473233E+01 -0.1544601E+01  0.8669102E+02 -0.2743345E+01  0.1697652E+02 -0.1544602E+01
  0.5527273E+01  0.5638357E+01 -0.1539031E+01  0.9206136E+02 -0.2726514E+01  0.1748855E+02 -0.1539031E+01
  0.5728283E+01  0.5764688E+01 -0.1532636E+01  0.9742953E+02 -0.2710284E+01  0.1788025E+02 -0.1532636E+01
  0.5929293E+01  0.5849730E+01 -0.1525396E+01  0.1027738E+03 -0.2694629E+01  0.1814385E+02 -0.1525396E+01
  0.6130303E+01  0.5889500E+01 -0.1517292E+01  0.1080673E+03 -0.2679463E+01  0.1826701E+02 -0.1517291E+01
  0.6331313E+01  0.5877057E+01 -0.1508294E+01  0.1132941E+03 -0.2664790E+01  0.1822819E+02 -0.1508294E+01
  0.6532323E+01  0.5801249E+01 -0.1498331E+01  0.1184508E+03 -0.2650735E+01  0.1799277E+02 -0.1498329E+01
  0.6733334E+01  0.5651053E+01 -0.1487302E+01  0.1235228E+03 -0.2637345E+01  0.1752662E+02 -0.1487299E+01
  0.6934343E+01  0.5416424E+01 -0.1475090E+01  0.1284948E+03 -0.2624625E+01  0.1679858E+02 -0.1475085E+01
  0.7135354E+01  0.5095226E+01 -0.1461762E+01  0.1333444E+03 -0.2612470E+01  0.1580204E+02 -0.1461753E+01
  0.7336363E+01  0.4682498E+01 -0.1447327E+01  0.1380663E+03 -0.2600953E+01  0.1452157E+02 -0.1447313E+01
  0.7537374E+01  0.4171490E+01 -0.1431712E+01  0.1426482E+03 -0.2590087E+01  0.1293626E+02 -0.1431692E+01
  0.7738384E+01  0.3555430E+01 -0.1414703E+01  0.1470764E+03 -0.2579875E+01  0.1102510E+02 -0.1414671E+01
  0.7939394E+01  0.2827368E+01 -0.1395708E+01  0.1513361E+03 -0.2570270E+01  0.8766530E+01 -0.1395656E+01
  0.8140405E+01  0.1983168E+01 -0.1373082E+01  0.1554135E+03 -0.2561237E+01  0.6147739E+01 -0.1372980E+01
  0.8341414E+01  0.1018799E+01 -0.1337615E+01  0.1592995E+03 -0.2552823E+01  0.3156241E+01 -0.1337344E+01
  0.8542424E+01  0.7992171E-01  0.1295855E+01  0.1629815E+03 -0.2544921E+01  0.2519352E+00  0.1300403E+01
  0.8743435E+01  0.1286411E+01  0.1774179E+01  0.1664486E+03 -0.2537580E+01  0.3994497E+01  0.1773937E+01
  0.8944445E+01  0.2628817E+01  0.1807767E+01  0.1696900E+03 -0.2530774E+01  0.8158509E+01  0.1807608E+01
  0.9145455E+01  0.4097934E+01  0.1831824E+01  0.1726966E+03 -0.2524504E+01  0.1271553E+02  0.1831698E+01
  0.9346465E+01  0.5691572E+01  0.1853474E+01  0.1754575E+03 -0.2518705E+01  0.1765874E+02  0.1853364E+01
  0.9547475E+01  0.7406987E+01  0.1874091E+01  0.1779630E+03 -0.2513433E+01  0.2297963E+02  0.1873990E+01
  0.9748485E+01  0.9240303E+01  0.1894081E+01  0.1802042E+03 -0.2508691E+01  0.2866619E+02  0.1893985E+01
  0.9949495E+01  0.1118565E+02  0.1913618E+01  0.1821745E+03 -0.2504447E+01  0.3470015E+02  0.1913525E+01
  0.1015051E+02  0.1323683E+02  0.1932692E+01  0.1838620E+03 -0.2500750E+01  0.4106236E+02  0.1932601E+01
  0.1035151E+02  0.1538573E+02  0.1951334E+01  0.1852620E+03 -0.2497559E+01  0.4772761E+02  0.1951243E+01
  0.1055252E+02  0.1762412E+02  0.1969537E+01  0.1863620E+03 -0.2494894E+01  0.5467044E+02  0.1969447E+01
  0.1075354E+02  0.1994260E+02  0.1987269E+01  0.1871623E+03 -0.2492686E+01  0.6186159E+02  0.1987178E+01
  0.1095455E+02  0.2233146E+02  0.2004466E+01  0.1876568E+03 -0.2490947E+01  0.6927098E+02  0.2004373E+01
  0.1115556E+02  0.2478079E+02  0.2021085E+01  0.1878363E+03 -0.2489724E+01  0.7686800E+02  0.2020991E+01
  0.1135657E+02  0.2727984E+02  0.2037110E+01  0.1876981E+03 -0.2488994E+01  0.8461894E+02  0.2037015E+01
  0.1155758E+02  0.2981761E+02  0.2052490E+01  0.1872303E+03 -0.2488805E+01  0.9249011E+02  0.2052394E+01
  0.1175859E+02  0.3238146E+02  0.2067272E+01  0.1864281E+03 -0.2489161E+01  0.1004421E+03  0.2067173E+01
  0.1195960E+02  0.3495964E+02  0.2081415E+01  0.1852930E+03 -0.2490057E+01  0.1084385E+03  0.2081315E+01
  0.1216061E+02  0.3754046E+02  0.2094899E+01  0.1838156E+03 -0.2491510E+01  0.1164430E+03  0.2094796E+01
  0.1236162E+02  0.4011149E+02  0.2107749E+01  0.1820034E+03 -0.2493508E+01  0.1244172E+03  0.2107644E+01
  0.1256263E+02  0.4266037E+02  0.2119960E+01  0.1798611E+03 -0.2496063E+01  0.1323227E+03  0.2119853E+01
  0.1276364E+02  0.4517544E+02  0.2131454E+01  0.1773730E+03 -0.2499254E+01  0.1401232E+03  0.2131344E+01
  0.1296465E+02  0.4764323E+02  0.2142300E+01  0.1745507E+03 -0.2503088E+01  0.1477772E+03  0.2142186E+01
  0.1316566E+02  0.5005138E+02  0.2152504E+01  0.1713974E+03 -0.2507575E+01  0.1552461E+03  0.2152388E+01
  0.1336667E+02  0.5238715E+02  0.2162020E+01  0.1679063E+03 -0.2512793E+01  0.1624905E+03  0.2161900E+01
  0.1356768E+02  0.5463762E+02  0.2170910E+01  0.1640856E+03 -0.2518773E+01  0.1694705E+03  0.2170787E+01
  0.1376869E+02  0.5678996E+02  0.2179236E+01  0.1599476E+03 -0.2525542E+01  0.1761460E+03  0.2179109E+01
  0.1396970E+02  0.5883234E+02  0.2186981E+01  0.1555033E+03 -0.2533165E+01  0.1824806E+03  0.2186851E+01
  0.1417071E+02  0.6075254E+02  0.2194120E+01  0.1507535E+03 -0.2541706E+01  0.1884362E+03  0.2193986E+01
  0.1437172E+02  0.6253809E+02  0.2200659E+01  0.1457269E+03 -0.2551306E+01  0.1939742E+03  0.2200521E+01
  0.1457273E+02  0.6417741E+02  0.2206584E+01  0.1404134E+03 -0.2562055E+01  0.1990588E+03  0.2206442E+01
  0.1477374E+02  0.6565833E+02  0.2211884E+01  0.1348244E+03 -0.2574087E+01  0.2036520E+03  0.2211738E+01
  0.1497475E+02  0.6696978E+02  0.2216617E+01  0.1289825E+03 -0.2587547E+01  0.2077200E+03  0.2216465E+01
  0.1517576E+02  0.6810168E+02  0.2220752E+01  0.1229187E+03 -0.2602651E+01  0.2112310E+03  0.2220595E+01
  0.1537677E+02  0.6903982E+02  0.2224220E+01  0.1166213E+03 -0.2619575E+01  0.2141409E+03  0.2224059E+01
  0.1557778E+02  0.6977816E+02  0.2227132E+01  0.1101122E+03 -0.2638622E+01  0.2164314E+03  0.2226966E+01
  0.1577879E+02  0.7031015E+02  0.2229461E+01  0.1034206E+03 -0.2660140E+01  0.2180820E+03  0.2229289E+01
  0.1597980E+02  0.7062727E+02  0.2231240E+01  0.9657093E+02 -0.2684610E+01  0.2190661E+03  0.2231062E+01
  0.1618081E+02  0.7072008E+02  0.2232413E+01  0.8958727E+02 -0.2712578E+01  0.2193547E+03  0.2232229E+01
  0.1638182E+02  0.7058535E+02  0.2232962E+01  0.8249326E+02 -0.2744713E+01  0.2189379E+03  0.2232771E+01
  0.1658283E+02  0.7021523E+02  0.2232862E+01  0.7528572E+02 -0.2782914E+01  0.2177909E+03  0.2232665E+01
  0.1678384E+02  0.6960602E+02  0.2232056E+01  0.6794511E+02 -0.2828075E+01  0.2159025E+03  0.2231850E+01
  0.1698485E+02  0.6875275E+02  0.2230510E+01  0.6043637E+02 -0.2882679E+01  0.2132575E+03  0.2230297E+01
  0.1718586E+02  0.6765334E+02  0.2228219E+01  0.5268394E+02 -0.2950216E+01  0.2098490E+03  0.2227998E+01
  0.1738687E+02  0.6631551E+02  0.2225070E+01  0.4456155E+02 -0.3039080E+01  0.2057013E+03  0.2224839E+01
  0.1758788E+02  0.6473336E+02  0.2221026E+01  0.3542511E+02  0.3117241E+01  0.2007958E+03  0.2220786E+01
  0.1778889E+02  0.6290792E+02  0.2215943E+01  0.2308791E+02  0.2885265E+01  0.1951360E+03  0.2215693E+01
  0.1798990E+02  0.6084637E+02  0.2209763E+01  0.1040546E+02  0.2826814E+00  0.1887439E+03  0.2209502E+01
  0.1819091E+02  0.5855375E+02  0.2202327E+01  0.9696234E+02 -0.2497128E+01  0.1816353E+03  0.2202054E+01
  0.1839192E+02  0.5604707E+02  0.2193589E+01  0.5057389E+02  0.3043880E+01  0.1738631E+03  0.2193303E+01
  0.1859293E+02  0.5333117E+02  0.2183106E+01  0.3886560E+02  0.2723517E+01  0.1654418E+03  0.2182806E+01
  0.1879394E+02  0.5041185E+02  0.2170651E+01  0.3403881E+02  0.2442132E+01  0.1563899E+03  0.2170336E+01
  0.1899495E+02  0.4731118E+02  0.2155742E+01  0.3235416E+02  0.2183434E+01  0.1467757E+03  0.2155411E+01
  0.1919596E+02  0.4402894E+02  0.2137911E+01  0.3254518E+02  0.1956064E+01  0.1365984E+03  0.2137563E+01
  0.1939697E+02  0.4057750E+02  0.2116343E+01  0.3400639E+02  0.1762687E+01  0.1258963E+03  0.2115977E+01
  0.1959798E+02  0.3696526E+02  0.2089920E+01  0.3620786E+02  0.1603919E+01  0.1146956E+03  0.2089536E+01
  0.1979899E+02  0.3320079E+02  0.2056868E+01  0.3877803E+02  0.1474839E+01  0.1030228E+03  0.2056467E+01
  0.2000000E+02  0.2929300E+02  0.2013588E+01  0.4143981E+02  0.1368822E+01  0.9090536E+02  0.2013175E+01
