VARIABLES="w (rad/s)"
"abs(F   1   1)" "angle(F   1   1)"
"abs(F   1   2)" "angle(F   1   2)"
"abs(F   1   3)" "angle(F   1   3)"
Zone t="Diffraction force - beta =   0.000 deg",I=   100,F=POINT
  0.1000000E+00  0.1339869E-01 -0.1570595E+01  0.3945567E+03 -0.2067794E-07  0.4156046E-01 -0.1570746E+01
  0.3010101E+00  0.1213222E+00 -0.1570793E+01  0.3942186E+03 -0.1698007E-05  0.3763210E+00 -0.1570833E+01
  0.5020202E+00  0.3373691E+00 -0.1570796E+01  0.3935378E+03 -0.1311063E-04  0.1046461E+01 -0.1570780E+01
  0.7030303E+00  0.6610082E+00 -0.1570795E+01  0.3925075E+03 -0.5028964E-04  0.2050334E+01 -0.1570793E+01
  0.9040404E+00  0.1091491E+01 -0.1570796E+01  0.3911230E+03 -0.1370288E-03  0.3385618E+01 -0.1570796E+01
  0.1105051E+01  0.1628648E+01 -0.1570797E+01  0.3893758E+03 -0.3045311E-03  0.5051777E+01 -0.1570795E+01
  0.1306061E+01  0.2271358E+01 -0.1570798E+01  0.3872639E+03 -0.5909867E-03  0.7045353E+01 -0.1570794E+01
  0.1507071E+01  0.3016034E+01 -0.1570795E+01  0.3847834E+03 -0.1041009E-02  0.9355180E+01 -0.1570793E+01
  0.1708081E+01  0.3866927E+01 -0.1570787E+01  0.3819364E+03 -0.1704942E-02  0.1199449E+02 -0.1570788E+01
  0.1909091E+01  0.4813866E+01 -0.1570780E+01  0.3787198E+03 -0.2638037E-02  0.1493172E+02 -0.1570780E+01
  0.2110101E+01  0.5866231E+01 -0.1570768E+01  0.3751483E+03 -0.3899792E-02  0.1819590E+02 -0.1570768E+01
  0.2311111E+01  0.7007854E+01 -0.1570748E+01  0.3712220E+03 -0.5552612E-02  0.2173696E+02 -0.1570748E+01
  0.2512121E+01  0.8250146E+01 -0.1570718E+01  0.3669530E+03 -0.7661263E-02  0.2559025E+02 -0.1570718E+01
  0.2713131E+01  0.9584436E+01 -0.1570674E+01  0.3623678E+03 -0.1029187E-01  0.2972886E+02 -0.1570674E+01
  0.2914141E+01  0.1100080E+02 -0.1570613E+01  0.3574628E+03 -0.1350986E-01  0.3412212E+02 -0.1570614E+01
  0.3115151E+01  0.1250962E+02 -0.1570530E+01  0.3522779E+03 -0.1738137E-01  0.3880208E+02 -0.1570530E+01
  0.3316161E+01  0.1410591E+02 -0.1570419E+01  0.3468297E+03 -0.2197007E-01  0.4375331E+02 -0.1570420E+01
  0.3517171E+01  0.1577300E+02 -0.1570274E+01  0.3411393E+03 -0.2733652E-01  0.4892414E+02 -0.1570274E+01
  0.3718182E+01  0.1751351E+02 -0.1570089E+01  0.3352295E+03 -0.3353872E-01  0.5432265E+02 -0.1570089E+01
  0.3919192E+01  0.1933034E+02 -0.1569859E+01  0.3291304E+03 -0.4063188E-01  0.5995786E+02 -0.1569860E+01
  0.4120202E+01  0.2121874E+02 -0.1569576E+01  0.3228868E+03 -0.4866860E-01  0.6581503E+02 -0.1569576E+01
  0.4321212E+01  0.2316391E+02 -0.1569235E+01  0.3164995E+03 -0.5769081E-01  0.7184813E+02 -0.1569235E+01
  0.4522222E+01  0.2515534E+02 -0.1568831E+01  0.3099971E+03 -0.6773751E-01  0.7802484E+02 -0.1568832E+01
  0.4723232E+01  0.2719965E+02 -0.1568358E+01  0.3034220E+03 -0.7884941E-01  0.8436543E+02 -0.1568358E+01
  0.4924242E+01  0.2929403E+02 -0.1567817E+01  0.2967930E+03 -0.9106013E-01  0.9086133E+02 -0.1567816E+01
  0.5125252E+01  0.3142762E+02 -0.1567206E+01  0.2901354E+03 -0.1043960E+00  0.9747878E+02 -0.1567206E+01
  0.5326262E+01  0.3358623E+02 -0.1566528E+01  0.2834695E+03 -0.1188784E+00  0.1041738E+03 -0.1566528E+01
  0.5527273E+01  0.3575763E+02 -0.1565788E+01  0.2768137E+03 -0.1345202E+00  0.1109085E+03 -0.1565788E+01
  0.5728283E+01  0.3793822E+02 -0.1564999E+01  0.2701790E+03 -0.1513340E+00  0.1176715E+03 -0.1564999E+01
  0.5929293E+01  0.4012197E+02 -0.1564179E+01  0.2635875E+03 -0.1693361E+00  0.1244444E+03 -0.1564179E+01
  0.6130303E+01  0.4230127E+02 -0.1563350E+01  0.2570702E+03 -0.1885440E+00  0.1312032E+03 -0.1563350E+01
  0.6331313E+01  0.4446523E+02 -0.1562540E+01  0.2506418E+03 -0.2089661E+00  0.1379145E+03 -0.1562540E+01
  0.6532323E+01  0.4659869E+02 -0.1561782E+01  0.2442977E+03 -0.2305939E+00  0.1445312E+03 -0.1561782E+01
  0.6733334E+01  0.4868634E+02 -0.1561116E+01  0.2380441E+03 -0.2534129E+00  0.1510057E+03 -0.1561116E+01
  0.6934343E+01  0.5071360E+02 -0.1560590E+01  0.2318896E+03 -0.2774168E+00  0.1572929E+03 -0.1560590E+01
  0.7135354E+01  0.5267405E+02 -0.1560270E+01  0.2258567E+03 -0.3026144E+00  0.1633726E+03 -0.1560270E+01
  0.7336363E+01  0.5455805E+02 -0.1560226E+01  0.2199383E+03 -0.3289962E+00  0.1692154E+03 -0.1560226E+01
  0.7537374E+01  0.5635437E+02 -0.1560534E+01  0.2141369E+03 -0.3565518E+00  0.1747863E+03 -0.1560534E+01
  0.7738384E+01  0.5805183E+02 -0.1561275E+01  0.2084548E+03 -0.3852679E+00  0.1800502E+03 -0.1561275E+01
  0.7939394E+01  0.5963905E+02 -0.1562538E+01  0.2029007E+03 -0.4151439E+00  0.1849721E+03 -0.1562538E+01
  0.8140405E+01  0.6110783E+02 -0.1564421E+01  0.1974807E+03 -0.4461750E+00  0.1895269E+03 -0.1564421E+01
  0.8341414E+01  0.6245015E+02 -0.1567026E+01  0.1921871E+03 -0.4783410E+00  0.1936893E+03 -0.1567026E+01
  0.8542424E+01  0.6365904E+02 -0.1570455E+01  0.1870350E+03 -0.5116661E+00  0.1974379E+03 -0.1570455E+01
  0.8743435E+01  0.6472858E+02 -0.1574810E+01  0.1820157E+03 -0.5461195E+00  0.2007543E+03 -0.1574810E+01
  0.8944445E+01  0.6565559E+02 -0.1580196E+01  0.1771319E+03 -0.5816962E+00  0.2036283E+03 -0.1580196E+01
  0.9145455E+01  0.6643835E+02 -0.1586715E+01  0.1723808E+03 -0.6183893E+00  0.2060551E+03 -0.1586715E+01
  0.9346465E+01  0.6707731E+02 -0.1594465E+01  0.1677703E+03 -0.6562040E+00  0.2080358E+03 -0.1594465E+01
  0.9547475E+01  0.6757355E+02 -0.1603540E+01  0.1632889E+03 -0.6951060E+00  0.2095740E+03 -0.1603540E+01
  0.9748485E+01  0.6792970E+02 -0.1614023E+01  0.1589324E+03 -0.7350881E+00  0.2106779E+03 -0.1614023E+01
  0.9949495E+01  0.6815070E+02 -0.1625996E+01  0.1547028E+03 -0.7761611E+00  0.2113624E+03 -0.1625996E+01
  0.1015051E+02  0.6824170E+02 -0.1639525E+01  0.1505881E+03 -0.8182872E+00  0.2116435E+03 -0.1639525E+01
  0.1035151E+02  0.6821018E+02 -0.1654673E+01  0.1465923E+03 -0.8614886E+00  0.2115448E+03 -0.1654673E+01
  0.1055252E+02  0.6806345E+02 -0.1671500E+01  0.1427080E+03 -0.9057285E+00  0.2110891E+03 -0.1671500E+01
  0.1075354E+02  0.6781003E+02 -0.1690051E+01  0.1389451E+03 -0.9510521E+00  0.2103022E+03 -0.1690051E+01
  0.1095455E+02  0.6745811E+02 -0.1710353E+01  0.1352994E+03 -0.9974505E+00  0.2092097E+03 -0.1710353E+01
  0.1115556E+02  0.6701565E+02 -0.1732435E+01  0.1317592E+03 -0.1044901E+01  0.2078366E+03 -0.1732435E+01
  0.1135657E+02  0.6649139E+02 -0.1756317E+01  0.1283271E+03 -0.1093414E+01  0.2062099E+03 -0.1756317E+01
  0.1155758E+02  0.6589316E+02 -0.1782004E+01  0.1249913E+03 -0.1142940E+01  0.2043534E+03 -0.1782004E+01
  0.1175859E+02  0.6523104E+02 -0.1809512E+01  0.1217489E+03 -0.1193473E+01  0.2022995E+03 -0.1809512E+01
  0.1195960E+02  0.6451254E+02 -0.1838832E+01  0.1186004E+03 -0.1245044E+01  0.2000707E+03 -0.1838832E+01
  0.1216061E+02  0.6374461E+02 -0.1869955E+01  0.1155399E+03 -0.1297596E+01  0.1976881E+03 -0.1869955E+01
  0.1236162E+02  0.6293523E+02 -0.1902881E+01  0.1125719E+03 -0.1351188E+01  0.1951774E+03 -0.1902880E+01
  0.1256263E+02  0.6209096E+02 -0.1937594E+01  0.1096973E+03 -0.1405845E+01  0.1925582E+03 -0.1937595E+01
  0.1276364E+02  0.6121472E+02 -0.1974054E+01  0.1068969E+03 -0.1461480E+01  0.1898399E+03 -0.1974055E+01
  0.1296465E+02  0.6031433E+02 -0.2012259E+01  0.1041757E+03 -0.1518161E+01  0.1870466E+03 -0.2012259E+01
  0.1316566E+02  0.5939506E+02 -0.2052190E+01  0.1015348E+03 -0.1575871E+01  0.1841953E+03 -0.2052189E+01
  0.1336667E+02  0.5845903E+02 -0.2093800E+01  0.9895934E+02 -0.1634570E+01  0.1812918E+03 -0.2093799E+01
  0.1356768E+02  0.5751255E+02 -0.2137087E+01  0.9644995E+02 -0.1694269E+01  0.1783557E+03 -0.2137087E+01
  0.1376869E+02  0.5656247E+02 -0.2182040E+01  0.9401064E+02 -0.1754992E+01  0.1754089E+03 -0.2182038E+01
  0.1396970E+02  0.5561094E+02 -0.2228629E+01  0.9164046E+02 -0.1816765E+01  0.1724571E+03 -0.2228628E+01
  0.1417071E+02  0.5465906E+02 -0.2276819E+01  0.8933086E+02 -0.1879512E+01  0.1695044E+03 -0.2276819E+01
  0.1437172E+02  0.5370946E+02 -0.2326577E+01  0.8708820E+02 -0.1943431E+01  0.1665590E+03 -0.2326577E+01
  0.1457273E+02  0.5276300E+02 -0.2377879E+01  0.8489360E+02 -0.2008358E+01  0.1636232E+03 -0.2377880E+01
  0.1477374E+02  0.5182037E+02 -0.2430690E+01  0.8274096E+02 -0.2074309E+01  0.1606998E+03 -0.2430688E+01
  0.1497475E+02  0.5088671E+02 -0.2484994E+01  0.8063338E+02 -0.2141336E+01  0.1578033E+03 -0.2484995E+01
  0.1517576E+02  0.4996117E+02 -0.2540780E+01  0.7857895E+02 -0.2209570E+01  0.1549324E+03 -0.2540781E+01
  0.1537677E+02  0.4903981E+02 -0.2597954E+01  0.7654861E+02 -0.2278803E+01  0.1520748E+03 -0.2597955E+01
  0.1557778E+02  0.4813126E+02 -0.2656564E+01  0.7453748E+02 -0.2349121E+01  0.1492570E+03 -0.2656562E+01
  0.1577879E+02  0.4723553E+02 -0.2716629E+01  0.7254688E+02 -0.2420595E+01  0.1464786E+03 -0.2716629E+01
  0.1597980E+02  0.4635627E+02 -0.2778107E+01  0.7057075E+02 -0.2493323E+01  0.1437513E+03 -0.2778106E+01
  0.1618081E+02  0.4549052E+02 -0.2840936E+01  0.6860098E+02 -0.2567314E+01  0.1410661E+03 -0.2840935E+01
  0.1638182E+02  0.4463956E+02 -0.2905162E+01  0.6662534E+02 -0.2642529E+01  0.1384267E+03 -0.2905161E+01
  0.1658283E+02  0.4380260E+02 -0.2970708E+01  0.6459431E+02 -0.2720082E+01  0.1358309E+03 -0.2970707E+01
  0.1678384E+02  0.4297805E+02 -0.3037593E+01  0.6244893E+02 -0.2799404E+01  0.1332731E+03 -0.3037592E+01
  0.1698485E+02  0.4216495E+02 -0.3105767E+01  0.6009843E+02 -0.2881189E+01  0.1307515E+03 -0.3105766E+01
  0.1718586E+02  0.4136483E+02  0.3108013E+01  0.5740015E+02 -0.2966111E+01  0.1282698E+03  0.3108015E+01
  0.1738687E+02  0.4057949E+02  0.3037179E+01  0.5414005E+02 -0.3057264E+01  0.1258339E+03  0.3037179E+01
  0.1758788E+02  0.3980602E+02  0.2965087E+01  0.4953030E+02  0.3124177E+01  0.1234349E+03  0.2965089E+01
  0.1778889E+02  0.3904019E+02  0.2891695E+01  0.4100315E+02  0.2998347E+01  0.1210596E+03  0.2891697E+01
  0.1798990E+02  0.3828586E+02  0.2817010E+01  0.1238671E+02  0.2905078E+01  0.1187200E+03  0.2817011E+01
  0.1819091E+02  0.3754102E+02  0.2741007E+01  0.1183031E+03 -0.2626751E+01  0.1164097E+03  0.2741009E+01
  0.1839192E+02  0.3681673E+02  0.2663734E+01  0.7898795E+02  0.3079089E+01  0.1141632E+03  0.2663736E+01
  0.1859293E+02  0.3610257E+02  0.2584964E+01  0.6853045E+02  0.2909252E+01  0.1119479E+03  0.2584967E+01
  0.1879394E+02  0.3539515E+02  0.2504832E+01  0.6341294E+02  0.2788734E+01  0.1097537E+03  0.2504834E+01
  0.1899495E+02  0.3470106E+02  0.2423106E+01  0.6011269E+02  0.2685615E+01  0.1076007E+03  0.2423108E+01
  0.1919596E+02  0.3400605E+02  0.2339959E+01  0.5764161E+02  0.2590962E+01  0.1054449E+03  0.2339961E+01
  0.1939697E+02  0.3330331E+02  0.2255214E+01  0.5564683E+02  0.2498224E+01  0.1032648E+03  0.2255215E+01
  0.1959798E+02  0.3258014E+02  0.2168680E+01  0.5394472E+02  0.2406258E+01  0.1010213E+03  0.2168682E+01
  0.1979899E+02  0.3182092E+02  0.2079922E+01  0.5243776E+02  0.2314296E+01  0.9866589E+02  0.2079923E+01
  0.2000000E+02  0.3100773E+02  0.1987523E+01  0.5104264E+02  0.2221987E+01  0.9614268E+02  0.1987524E+01
