VARIABLES="w (rad/s)"
"abs(F   1   1)" "angle(F   1   1)"
"abs(F   1   2)" "angle(F   1   2)"
"abs(F   1   3)" "angle(F   1   3)"
Zone t="FKforce - beta =   0.000",I=   100,F=POINT
  0.1000000E+00  0.1049507E-01 -0.1570539E+01  0.3945880E+03 -0.1475150E-12  0.3255339E-01 -0.1570732E+01
  0.3010101E+00  0.9507963E-01 -0.1570792E+01  0.3945031E+03  0.1106601E-11  0.2949161E+00 -0.1570843E+01
  0.5020202E+00  0.2643910E+00 -0.1570796E+01  0.3943334E+03 -0.1771323E-10  0.8200822E+00 -0.1570776E+01
  0.7030303E+00  0.5182877E+00 -0.1570795E+01  0.3940783E+03  0.2067881E-11  0.1607613E+01 -0.1570792E+01
  0.9040404E+00  0.8565556E+00 -0.1570796E+01  0.3937376E+03  0.2365338E-11  0.2656845E+01 -0.1570796E+01
  0.1105051E+01  0.1278907E+01 -0.1570798E+01  0.3933098E+03  0.8287687E-11  0.3966878E+01 -0.1570796E+01
  0.1306061E+01  0.1784978E+01 -0.1570801E+01  0.3927946E+03  0.5927541E-11  0.5536600E+01 -0.1570796E+01
  0.1507071E+01  0.2374334E+01 -0.1570799E+01  0.3921911E+03  0.1757252E-09  0.7364621E+01 -0.1570797E+01
  0.1708081E+01  0.3046440E+01 -0.1570795E+01  0.3914977E+03  0.1451112E-09  0.9449348E+01 -0.1570796E+01
  0.1909091E+01  0.3800709E+01 -0.1570796E+01  0.3907131E+03 -0.1191824E-10  0.1178891E+02 -0.1570796E+01
  0.2110101E+01  0.4636440E+01 -0.1570796E+01  0.3898353E+03  0.6569793E-09  0.1438112E+02 -0.1570796E+01
  0.2311111E+01  0.5552860E+01 -0.1570797E+01  0.3888636E+03  0.1436991E-10  0.1722361E+02 -0.1570796E+01
  0.2512121E+01  0.6549091E+01 -0.1570796E+01  0.3877954E+03  0.6340178E-09  0.2031363E+02 -0.1570796E+01
  0.2713131E+01  0.7624146E+01 -0.1570796E+01  0.3866288E+03  0.5010364E-09  0.2364814E+02 -0.1570796E+01
  0.2914141E+01  0.8776958E+01 -0.1570796E+01  0.3853616E+03  0.1836730E-09  0.2722388E+02 -0.1570797E+01
  0.3115151E+01  0.1000633E+02 -0.1570796E+01  0.3839915E+03 -0.5917910E-09  0.3103703E+02 -0.1570796E+01
  0.3316161E+01  0.1131095E+02 -0.1570796E+01  0.3825167E+03 -0.5259004E-09  0.3508358E+02 -0.1570797E+01
  0.3517171E+01  0.1268943E+02 -0.1570796E+01  0.3809341E+03  0.4987472E-09  0.3935918E+02 -0.1570796E+01
  0.3718182E+01  0.1414017E+02 -0.1570796E+01  0.3792408E+03 -0.1964604E-09  0.4385889E+02 -0.1570796E+01
  0.3919192E+01  0.1566150E+02 -0.1570796E+01  0.3774344E+03  0.1312715E-08  0.4857754E+02 -0.1570797E+01
  0.4120202E+01  0.1725160E+02 -0.1570796E+01  0.3755120E+03 -0.7936450E-10  0.5350951E+02 -0.1570796E+01
  0.4321212E+01  0.1890851E+02 -0.1570796E+01  0.3734708E+03  0.2493696E-09  0.5864854E+02 -0.1570796E+01
  0.4522222E+01  0.2063004E+02 -0.1570796E+01  0.3713078E+03 -0.1043420E-08  0.6398814E+02 -0.1570797E+01
  0.4723232E+01  0.2241399E+02 -0.1570796E+01  0.3690199E+03  0.2463203E-08  0.6952122E+02 -0.1570796E+01
  0.4924242E+01  0.2425783E+02 -0.1570796E+01  0.3666040E+03  0.3251718E-09  0.7524008E+02 -0.1570796E+01
  0.5125252E+01  0.2615896E+02 -0.1570796E+01  0.3640569E+03  0.2414921E-08  0.8113662E+02 -0.1570796E+01
  0.5326262E+01  0.2811457E+02 -0.1570796E+01  0.3613756E+03 -0.9277775E-09  0.8720217E+02 -0.1570796E+01
  0.5527273E+01  0.3012167E+02 -0.1570796E+01  0.3585569E+03  0.1163644E-08  0.9342734E+02 -0.1570796E+01
  0.5728283E+01  0.3217709E+02 -0.1570796E+01  0.3555979E+03  0.4714259E-08  0.9980225E+02 -0.1570796E+01
  0.5929293E+01  0.3427739E+02 -0.1570796E+01  0.3524951E+03 -0.2578677E-08  0.1063165E+03 -0.1570796E+01
  0.6130303E+01  0.3641903E+02 -0.1570796E+01  0.3492460E+03  0.4096000E-08  0.1129587E+03 -0.1570796E+01
  0.6331313E+01  0.3859813E+02 -0.1570796E+01  0.3458474E+03 -0.5601172E-08  0.1197172E+03 -0.1570796E+01
  0.6532323E+01  0.4081078E+02 -0.1570796E+01  0.3422965E+03 -0.2894939E-08  0.1265798E+03 -0.1570796E+01
  0.6733334E+01  0.4305269E+02 -0.1570796E+01  0.3385905E+03 -0.2596554E-08  0.1335331E+03 -0.1570796E+01
  0.6934343E+01  0.4531932E+02 -0.1570796E+01  0.3347269E+03 -0.4896910E-09  0.1405630E+03 -0.1570796E+01
  0.7135354E+01  0.4760616E+02 -0.1570796E+01  0.3307035E+03  0.2523302E-08  0.1476554E+03 -0.1570796E+01
  0.7336363E+01  0.4990815E+02 -0.1570796E+01  0.3265176E+03 -0.5202575E-08  0.1547949E+03 -0.1570796E+01
  0.7537374E+01  0.5222020E+02 -0.1570796E+01  0.3221677E+03  0.9250561E-09  0.1619658E+03 -0.1570796E+01
  0.7738384E+01  0.5453699E+02 -0.1570796E+01  0.3176515E+03 -0.1266581E-08  0.1691510E+03 -0.1570796E+01
  0.7939394E+01  0.5685287E+02 -0.1570796E+01  0.3129679E+03  0.1261729E-07  0.1763334E+03 -0.1570796E+01
  0.8140405E+01  0.5916206E+02 -0.1570796E+01  0.3081155E+03  0.5900196E-08  0.1834952E+03 -0.1570796E+01
  0.8341414E+01  0.6145848E+02 -0.1570796E+01  0.3030934E+03  0.1179926E-08  0.1906173E+03 -0.1570796E+01
  0.8542424E+01  0.6373596E+02 -0.1570796E+01  0.2979014E+03  0.1950798E-08  0.1976807E+03 -0.1570796E+01
  0.8743435E+01  0.6598796E+02 -0.1570796E+01  0.2925386E+03 -0.6214365E-08  0.2046651E+03 -0.1570796E+01
  0.8944445E+01  0.6820804E+02 -0.1570796E+01  0.2870058E+03  0.8307099E-09  0.2115501E+03 -0.1570796E+01
  0.9145455E+01  0.7038905E+02 -0.1570796E+01  0.2813037E+03  0.1801041E-08  0.2183142E+03 -0.1570796E+01
  0.9346465E+01  0.7252420E+02 -0.1570796E+01  0.2754328E+03  0.6059301E-08  0.2249360E+03 -0.1570796E+01
  0.9547475E+01  0.7460625E+02 -0.1570796E+01  0.2693953E+03  0.1183706E-07  0.2313931E+03 -0.1570796E+01
  0.9748485E+01  0.7662788E+02 -0.1570796E+01  0.2631928E+03  0.1868358E-07  0.2376632E+03 -0.1570796E+01
  0.9949495E+01  0.7858166E+02 -0.1570796E+01  0.2568285E+03 -0.1856636E-08  0.2437225E+03 -0.1570796E+01
  0.1015051E+02  0.8046004E+02 -0.1570796E+01  0.2503052E+03 -0.9406052E-08  0.2495478E+03 -0.1570796E+01
  0.1035151E+02  0.8225549E+02 -0.1570796E+01  0.2436272E+03 -0.1529095E-07  0.2551161E+03 -0.1570796E+01
  0.1055252E+02  0.8396014E+02 -0.1570796E+01  0.2367982E+03 -0.4593720E-08  0.2604031E+03 -0.1570796E+01
  0.1075354E+02  0.8556635E+02 -0.1570796E+01  0.2298237E+03  0.6613410E-08  0.2653846E+03 -0.1570796E+01
  0.1095455E+02  0.8706650E+02 -0.1570796E+01  0.2227098E+03  0.0000000E+00  0.2700370E+03 -0.1570796E+01
  0.1115556E+02  0.8845277E+02 -0.1570796E+01  0.2154623E+03  0.4495336E-08  0.2743365E+03 -0.1570796E+01
  0.1135657E+02  0.8971764E+02 -0.1570796E+01  0.2080883E+03 -0.1432196E-09  0.2782594E+03 -0.1570796E+01
  0.1155758E+02  0.9085362E+02 -0.1570796E+01  0.2005961E+03 -0.1017696E-07  0.2817823E+03 -0.1570796E+01
  0.1175859E+02  0.9185318E+02 -0.1570796E+01  0.1929940E+03 -0.1189041E-07  0.2848829E+03 -0.1570796E+01
  0.1195960E+02  0.9270927E+02 -0.1570796E+01  0.1852911E+03 -0.4503536E-08  0.2875384E+03 -0.1570796E+01
  0.1216061E+02  0.9341491E+02 -0.1570796E+01  0.1774978E+03  0.1326430E-07  0.2897270E+03 -0.1570796E+01
  0.1236162E+02  0.9396341E+02 -0.1570796E+01  0.1696242E+03 -0.2108355E-08  0.2914287E+03 -0.1570796E+01
  0.1256263E+02  0.9434834E+02 -0.1570796E+01  0.1616824E+03  0.1105958E-08  0.2926228E+03 -0.1570796E+01
  0.1276364E+02  0.9456386E+02 -0.1570796E+01  0.1536843E+03 -0.2307637E-07  0.2932916E+03 -0.1570796E+01
  0.1296465E+02  0.9460403E+02 -0.1570796E+01  0.1456429E+03  0.3069390E-08  0.2934168E+03 -0.1570796E+01
  0.1316566E+02  0.9446406E+02 -0.1570796E+01  0.1375717E+03 -0.1906355E-07  0.2929836E+03 -0.1570796E+01
  0.1336667E+02  0.9413930E+02 -0.1570796E+01  0.1294848E+03  0.3130186E-07  0.2919774E+03 -0.1570796E+01
  0.1356768E+02  0.9362552E+02 -0.1570796E+01  0.1213977E+03  0.1031072E-07  0.2903847E+03 -0.1570796E+01
  0.1376869E+02  0.9291948E+02 -0.1570796E+01  0.1133253E+03  0.4207685E-08  0.2881964E+03 -0.1570796E+01
  0.1396970E+02  0.9201846E+02 -0.1570796E+01  0.1052838E+03  0.1556866E-07  0.2854029E+03 -0.1570796E+01
  0.1417071E+02  0.9092031E+02 -0.1570796E+01  0.9729003E+02  0.2573126E-07  0.2819983E+03 -0.1570796E+01
  0.1437172E+02  0.8962386E+02 -0.1570796E+01  0.8936094E+02  0.4102112E-07  0.2779790E+03 -0.1570796E+01
  0.1457273E+02  0.8812876E+02 -0.1570796E+01  0.8151402E+02  0.4862610E-07  0.2733434E+03 -0.1570796E+01
  0.1477374E+02  0.8643531E+02 -0.1570796E+01  0.7376694E+02  0.6746908E-07  0.2680936E+03 -0.1570796E+01
  0.1497475E+02  0.8454504E+02 -0.1570796E+01  0.6613808E+02  0.1153555E-06  0.2622327E+03 -0.1570796E+01
  0.1517576E+02  0.8246018E+02 -0.1570796E+01  0.5864557E+02  0.4827681E-07  0.2557686E+03 -0.1570796E+01
  0.1537677E+02  0.8018411E+02 -0.1570796E+01  0.5130792E+02  0.7492994E-07  0.2487114E+03 -0.1570796E+01
  0.1557778E+02  0.7772104E+02 -0.1570796E+01  0.4414345E+02  0.4725871E-08  0.2410750E+03 -0.1570796E+01
  0.1577879E+02  0.7507663E+02 -0.1570796E+01  0.3717065E+02  0.1022257E-06  0.2328758E+03 -0.1570796E+01
  0.1597980E+02  0.7225702E+02 -0.1570796E+01  0.3040755E+02  0.6713658E-07  0.2241335E+03 -0.1570796E+01
  0.1618081E+02  0.6927006E+02 -0.1570796E+01  0.2387221E+02  0.2921282E-06  0.2148722E+03 -0.1570796E+01
  0.1638182E+02  0.6612412E+02 -0.1570796E+01  0.1758208E+02  0.1559437E-06  0.2051182E+03 -0.1570796E+01
  0.1658283E+02  0.6282924E+02 -0.1570796E+01  0.1155416E+02  0.1457338E-06  0.1949020E+03 -0.1570796E+01
  0.1678384E+02  0.5939607E+02 -0.1570796E+01  0.5804811E+01  0.9729067E-06  0.1842572E+03 -0.1570796E+01
  0.1698485E+02  0.5583648E+02 -0.1570796E+01  0.3496593E+00  0.1504353E-04  0.1732204E+03 -0.1570796E+01
  0.1718586E+02  0.5216360E+02 -0.1570796E+01  0.4796532E+01  0.3141592E+01  0.1618323E+03 -0.1570796E+01
  0.1738687E+02  0.4839134E+02 -0.1570796E+01  0.9620049E+01  0.3141593E+01  0.1501359E+03 -0.1570796E+01
  0.1758788E+02  0.4453463E+02 -0.1570796E+01  0.1410818E+02  0.3141593E+01  0.1381777E+03 -0.1570796E+01
  0.1778889E+02  0.4060932E+02 -0.1570796E+01  0.1824962E+02  0.3141593E+01  0.1260069E+03 -0.1570796E+01
  0.1798990E+02  0.3663226E+02 -0.1570796E+01  0.2203435E+02  0.3141593E+01  0.1136752E+03 -0.1570796E+01
  0.1819091E+02  0.3262077E+02 -0.1570796E+01  0.2545382E+02 -0.3141593E+01  0.1012370E+03 -0.1570796E+01
  0.1839192E+02  0.2859314E+02 -0.1570796E+01  0.2850106E+02  0.3141593E+01  0.8874869E+02 -0.1570796E+01
  0.1859293E+02  0.2456815E+02 -0.1570796E+01  0.3117087E+02  0.3141593E+01  0.7626847E+02 -0.1570796E+01
  0.1879394E+02  0.2056508E+02 -0.1570796E+01  0.3345984E+02  0.3141593E+01  0.6385609E+02 -0.1570796E+01
  0.1899495E+02  0.1660348E+02 -0.1570796E+01  0.3536651E+02  0.3141593E+01  0.5157228E+02 -0.1570796E+01
  0.1919596E+02  0.1270329E+02 -0.1570796E+01  0.3689115E+02  0.3141593E+01  0.3947874E+02 -0.1570796E+01
  0.1939697E+02  0.8884433E+01 -0.1570796E+01  0.3803635E+02  0.3141593E+01  0.2763738E+02 -0.1570796E+01
  0.1959798E+02  0.5166833E+01 -0.1570796E+01  0.3880667E+02 -0.3141593E+01  0.1610988E+02 -0.1570796E+01
  0.1979899E+02  0.1570188E+01 -0.1570794E+01  0.3920879E+02 -0.3141593E+01  0.4957295E+01 -0.1570795E+01
  0.2000000E+02  0.1886099E+01  0.1570794E+01  0.3925164E+02  0.3141593E+01  0.5760182E+01  0.1570796E+01
