 VARIABLES="Time (s)"
"AddedMass    1" "IRF    1"
"AddedMass    2" "IRF    2"
"AddedMass    3" "IRF    3"
Zone t="DoF    1",I=   800,F=POINT
  0.0000000E+00  0.2203010E+00  0.1462132E+02 -0.3206744E-07  0.8681481E-06  0.6834218E+00  0.4534201E+02
  0.1000000E-01  0.2203010E+00  0.1445755E+02 -0.3206744E-07  0.8536130E-06  0.6834218E+00  0.4483415E+02
  0.2000000E-01  0.2203010E+00  0.1397053E+02 -0.3206744E-07  0.8104827E-06  0.6834218E+00  0.4332392E+02
  0.3000000E-01  0.2203010E+00  0.1317306E+02 -0.3206744E-07  0.7401672E-06  0.6834218E+00  0.4085096E+02
  0.4000000E-01  0.2203010E+00  0.1208603E+02 -0.3206744E-07  0.6449610E-06  0.6834218E+00  0.3748008E+02
  0.5000000E-01  0.2203010E+00  0.1073784E+02 -0.3206744E-07  0.5279649E-06  0.6834218E+00  0.3329934E+02
  0.6000000E-01  0.2203010E+00  0.9163568E+01 -0.3206744E-07  0.3929787E-06  0.6834218E+00  0.2841750E+02
  0.7000000E-01  0.2203010E+00  0.7403966E+01 -0.3206744E-07  0.2443699E-06  0.6834218E+00  0.2296097E+02
  0.8000000E-01  0.2203010E+00  0.5504284E+01 -0.3206744E-07  0.8692420E-07  0.6834218E+00  0.1707002E+02
  0.9000000E-01  0.2203010E+00  0.3512959E+01 -0.3206744E-07 -0.7431922E-07  0.6834218E+00  0.1089488E+02
  0.9999999E-01  0.2203010E+00  0.1480259E+01 -0.3206744E-07 -0.2342389E-06  0.6834218E+00  0.4591422E+01
  0.1100000E+00  0.2203010E+00 -0.5431488E+00 -0.3206744E-07 -0.3878051E-06  0.6834218E+00 -0.1683242E+01
  0.1200000E+00  0.2203010E+00 -0.2507612E+01 -0.3206744E-07 -0.5302487E-06  0.6834218E+00 -0.7775137E+01
  0.1300000E+00  0.2203010E+00 -0.4365873E+01 -0.3206744E-07 -0.6572205E-06  0.6834218E+00 -0.1353772E+02
  0.1400000E+00  0.2203010E+00 -0.6074347E+01 -0.3206744E-07 -0.7649340E-06  0.6834218E+00 -0.1883583E+02
  0.1500000E+00  0.2203010E+00 -0.7594285E+01 -0.3206744E-07 -0.8502872E-06  0.6834218E+00 -0.2354932E+02
  0.1600000E+00  0.2203010E+00 -0.8892790E+01 -0.3206744E-07 -0.9109601E-06  0.6834218E+00 -0.2757616E+02
  0.1700000E+00  0.2203010E+00 -0.9943624E+01 -0.3206744E-07 -0.9454822E-06  0.6834218E+00 -0.3083499E+02
  0.1800000E+00  0.2203010E+00 -0.1072781E+02 -0.3206744E-07 -0.9532720E-06  0.6834218E+00 -0.3326698E+02
  0.1900000E+00  0.2203010E+00 -0.1123405E+02 -0.3206744E-07 -0.9346415E-06  0.6834218E+00 -0.3483704E+02
  0.2000000E+00  0.2203010E+00 -0.1145883E+02 -0.3206744E-07 -0.8907728E-06  0.6834218E+00 -0.3553431E+02
  0.2100000E+00  0.2203010E+00 -0.1140637E+02 -0.3206744E-07 -0.8236605E-06  0.6834218E+00 -0.3537186E+02
  0.2200000E+00  0.2203010E+00 -0.1108830E+02 -0.3206744E-07 -0.7360296E-06  0.6834218E+00 -0.3438577E+02
  0.2300000E+00  0.2203010E+00 -0.1052315E+02 -0.3206744E-07 -0.6312268E-06  0.6834218E+00 -0.3263346E+02
  0.2400000E+00  0.2203010E+00 -0.9735605E+01 -0.3206744E-07 -0.5130910E-06  0.6834218E+00 -0.3019151E+02
  0.2500000E+00  0.2203010E+00 -0.8755649E+01 -0.3206744E-07 -0.3858096E-06  0.6834218E+00 -0.2715286E+02
  0.2600000E+00  0.2203010E+00 -0.7617517E+01 -0.3206744E-07 -0.2537641E-06  0.6834218E+00 -0.2362370E+02
  0.2700000E+00  0.2203010E+00 -0.6358576E+01 -0.3206744E-07 -0.1213704E-06  0.6834218E+00 -0.1971987E+02
  0.2800000E+00  0.2203010E+00 -0.5018126E+01 -0.3206744E-07  0.7078240E-08  0.6834218E+00 -0.1556325E+02
  0.2900000E+00  0.2203010E+00 -0.3636194E+01 -0.3206744E-07  0.1275594E-06  0.6834218E+00 -0.1127796E+02
  0.3000000E+00  0.2203010E+00 -0.2252311E+01 -0.3206744E-07  0.2364620E-06  0.6834218E+00 -0.6986590E+01
  0.3100000E+00  0.2203010E+00 -0.9043484E+00 -0.3206744E-07  0.3307034E-06  0.6834218E+00 -0.2806564E+01
  0.3200000E+00  0.2203010E+00  0.3725318E+00 -0.3206744E-07  0.4078283E-06  0.6834218E+00  0.1153075E+01
  0.3300000E+00  0.2203010E+00  0.1546859E+01 -0.3206744E-07  0.4660808E-06  0.6834218E+00  0.4794747E+01
  0.3400000E+00  0.2203010E+00  0.2591669E+01 -0.3206744E-07  0.5044508E-06  0.6834218E+00  0.8034817E+01
  0.3500000E+00  0.2203010E+00  0.3485125E+01 -0.3206744E-07  0.5226885E-06  0.6834218E+00  0.1080558E+02
  0.3600000E+00  0.2203010E+00  0.4211013E+01 -0.3206744E-07  0.5212935E-06  0.6834218E+00  0.1305674E+02
  0.3700000E+00  0.2203010E+00  0.4758999E+01 -0.3206744E-07  0.5014734E-06  0.6834218E+00  0.1475627E+02
  0.3800000E+00  0.2203010E+00  0.5124706E+01 -0.3206744E-07  0.4650763E-06  0.6834218E+00  0.1589056E+02
  0.3900000E+00  0.2203010E+00  0.5309604E+01 -0.3206744E-07  0.4145020E-06  0.6834218E+00  0.1646419E+02
  0.4000000E+00  0.2203010E+00  0.5320706E+01 -0.3206744E-07  0.3525916E-06  0.6834218E+00  0.1649889E+02
  0.4100000E+00  0.2203010E+00  0.5170104E+01 -0.3206744E-07  0.2825031E-06  0.6834218E+00  0.1603215E+02
  0.4200000E+00  0.2203010E+00  0.4874348E+01 -0.3206744E-07  0.2075778E-06  0.6834218E+00  0.1511530E+02
  0.4300000E+00  0.2203010E+00  0.4453721E+01 -0.3206744E-07  0.1312002E-06  0.6834218E+00  0.1381120E+02
  0.4400000E+00  0.2203010E+00  0.3931386E+01 -0.3206744E-07  0.5665986E-07  0.6834218E+00  0.1219170E+02
  0.4500000E+00  0.2203010E+00  0.3332512E+01 -0.3206744E-07 -0.1297759E-07  0.6834218E+00  0.1033483E+02
  0.4600000E+00  0.2203010E+00  0.2683324E+01 -0.3206744E-07 -0.7499649E-07  0.6834218E+00  0.8321903E+01
  0.4700000E+00  0.2203010E+00  0.2010186E+01 -0.3206744E-07 -0.1271301E-06  0.6834218E+00  0.6234682E+01
  0.4800000E+00  0.2203010E+00  0.1338705E+01 -0.3206744E-07 -0.1676483E-06  0.6834218E+00  0.4152569E+01
  0.4900000E+00  0.2203010E+00  0.6928821E+00 -0.3206744E-07 -0.1954193E-06  0.6834218E+00  0.2149984E+01
  0.5000000E+00  0.2203010E+00  0.9437699E-01 -0.3206744E-07 -0.2099449E-06  0.6834218E+00  0.2940948E+00
  0.5100000E+00  0.2203010E+00 -0.4381357E+00 -0.3206744E-07 -0.2113712E-06  0.6834218E+00 -0.1357193E+01
  0.5200000E+00  0.2203010E+00 -0.8894820E+00 -0.3206744E-07 -0.2004714E-06  0.6834218E+00 -0.2756819E+01
  0.5300000E+00  0.2203010E+00 -0.1248353E+01 -0.3206744E-07 -0.1786048E-06  0.6834218E+00 -0.3869715E+01
  0.5400000E+00  0.2203010E+00 -0.1507524E+01 -0.3206744E-07 -0.1476484E-06  0.6834218E+00 -0.4673477E+01
  0.5500000E+00  0.2203010E+00 -0.1663919E+01 -0.3206744E-07 -0.1099104E-06  0.6834218E+00 -0.5158558E+01
  0.5600000E+00  0.2203010E+00 -0.1718531E+01 -0.3206744E-07 -0.6802681E-07  0.6834218E+00 -0.5328036E+01
  0.5700000E+00  0.2203010E+00 -0.1676197E+01 -0.3206744E-07 -0.2484053E-07  0.6834218E+00 -0.5196903E+01
  0.5800000E+00  0.2203010E+00 -0.1545238E+01 -0.3206744E-07  0.1672317E-07  0.6834218E+00 -0.4790961E+01
  0.5900000E+00  0.2203010E+00 -0.1337001E+01 -0.3206744E-07  0.5378762E-07  0.6834218E+00 -0.4145389E+01
  0.6000000E+00  0.2203010E+00 -0.1065292E+01 -0.3206744E-07  0.8365173E-07  0.6834218E+00 -0.3302993E+01
  0.6100000E+00  0.2203010E+00 -0.7457545E+00 -0.3206744E-07  0.1039127E-06  0.6834218E+00 -0.2312278E+01
  0.6200000E+00  0.2203010E+00 -0.3952006E+00 -0.3206744E-07  0.1125732E-06  0.6834218E+00 -0.1225374E+01
  0.6300000E+00  0.2203010E+00 -0.3091383E-01 -0.3206744E-07  0.1081365E-06  0.6834218E+00 -0.9587460E-01
  0.6400000E+00  0.2203010E+00  0.3300246E+00 -0.3206744E-07  0.8967827E-07  0.6834218E+00  0.1023258E+01
  0.6500000E+00  0.2203010E+00  0.6713892E+00 -0.3206744E-07  0.5689830E-07  0.6834218E+00  0.2081712E+01
  0.6600000E+00  0.2203010E+00  0.9784036E+00 -0.3206744E-07  0.1014385E-07  0.6834218E+00  0.3033670E+01
  0.6700000E+00  0.2203010E+00  0.1238258E+01 -0.3206744E-07 -0.4958816E-07  0.6834218E+00  0.3839410E+01
  0.6800000E+00  0.2203010E+00  0.1440543E+01 -0.3206744E-07 -0.1206791E-06  0.6834218E+00  0.4466649E+01
  0.6900000E+00  0.2203010E+00  0.1577558E+01 -0.3206744E-07 -0.2009402E-06  0.6834218E+00  0.4891517E+01
  0.7000000E+00  0.2203010E+00  0.1644547E+01 -0.3206744E-07 -0.2876859E-06  0.6834218E+00  0.5099247E+01
  0.7100000E+00  0.2203010E+00  0.1639754E+01 -0.3206744E-07 -0.3778311E-06  0.6834218E+00  0.5084412E+01
  0.7200000E+00  0.2203010E+00  0.1564428E+01 -0.3206744E-07 -0.4680010E-06  0.6834218E+00  0.4850873E+01
  0.7300000E+00  0.2203010E+00  0.1422664E+01 -0.3206744E-07 -0.5546562E-06  0.6834218E+00  0.4411324E+01
  0.7400000E+00  0.2203010E+00  0.1221162E+01 -0.3206744E-07 -0.6342254E-06  0.6834218E+00  0.3786541E+01
  0.7500000E+00  0.2203010E+00  0.9688961E+00 -0.3206744E-07 -0.7032376E-06  0.6834218E+00  0.3004349E+01
  0.7600000E+00  0.2203010E+00  0.6766840E+00 -0.3206744E-07 -0.7584575E-06  0.6834218E+00  0.2098286E+01
  0.7700000E+00  0.2203010E+00  0.3567257E+00 -0.3206744E-07 -0.7970104E-06  0.6834218E+00  0.1106189E+01
  0.7800000E+00  0.2203010E+00  0.2208067E-01 -0.3206744E-07 -0.8164929E-06  0.6834218E+00  0.6854140E-01
  0.7900000E+00  0.2203010E+00 -0.3138646E+00 -0.3206744E-07 -0.8150718E-06  0.6834218E+00 -0.9731451E+00
  0.8000000E+00  0.2203010E+00 -0.6379329E+00 -0.3206744E-07 -0.7915575E-06  0.6834218E+00 -0.1978010E+01
  0.8100000E+00  0.2203010E+00 -0.9376644E+00 -0.3206744E-07 -0.7454601E-06  0.6834218E+00 -0.2907419E+01
  0.8200000E+00  0.2203010E+00 -0.1201784E+01 -0.3206744E-07 -0.6770161E-06  0.6834218E+00 -0.3726414E+01
  0.8300000E+00  0.2203010E+00 -0.1420628E+01 -0.3206744E-07 -0.5871907E-06  0.6834218E+00 -0.4405022E+01
  0.8400000E+00  0.2203010E+00 -0.1586474E+01 -0.3206744E-07 -0.4776518E-06  0.6834218E+00 -0.4919304E+01
  0.8500000E+00  0.2203010E+00 -0.1693804E+01 -0.3206744E-07 -0.3507231E-06  0.6834218E+00 -0.5252144E+01
  0.8600000E+00  0.2203010E+00 -0.1739472E+01 -0.3206744E-07 -0.2093092E-06  0.6834218E+00 -0.5393785E+01
  0.8700000E+00  0.2203010E+00 -0.1722772E+01 -0.3206744E-07 -0.5679834E-07  0.6834218E+00 -0.5342044E+01
  0.8800000E+00  0.2203010E+00 -0.1645421E+01 -0.3206744E-07  0.1030407E-06  0.6834218E+00 -0.5102234E+01
  0.8900000E+00  0.2203010E+00 -0.1511438E+01 -0.3206744E-07  0.2661928E-06  0.6834218E+00 -0.4686820E+01
  0.9000000E+00  0.2203010E+00 -0.1326938E+01 -0.3206744E-07  0.4285252E-06  0.6834218E+00 -0.4114760E+01
  0.9100000E+00  0.2203010E+00 -0.1099856E+01 -0.3206744E-07  0.5859253E-06  0.6834218E+00 -0.3410659E+01
  0.9200000E+00  0.2203010E+00 -0.8396037E+00 -0.3206744E-07  0.7344364E-06  0.6834218E+00 -0.2603698E+01
  0.9300000E+00  0.2203010E+00 -0.5566745E+00 -0.3206744E-07  0.8703875E-06  0.6834218E+00 -0.1726418E+01
  0.9400000E+00  0.2203010E+00 -0.2622148E+00 -0.3206744E-07  0.9905121E-06  0.6834218E+00 -0.8133746E+00
  0.9500000E+00  0.2203010E+00  0.3241780E-01 -0.3206744E-07  0.1092051E-05  0.6834218E+00  0.1002136E+00
  0.9600000E+00  0.2203010E+00  0.3160990E+00 -0.3206744E-07  0.1172840E-05  0.6834218E+00  0.9798521E+00
  0.9700000E+00  0.2203010E+00  0.5783558E+00 -0.3206744E-07  0.1231369E-05  0.6834218E+00  0.1793063E+01
  0.9800000E+00  0.2203010E+00  0.8097647E+00 -0.3206744E-07  0.1266820E-05  0.6834218E+00  0.2510633E+01
  0.9899999E+00  0.2203010E+00  0.1002292E+01 -0.3206744E-07  0.1279086E-05  0.6834218E+00  0.3107643E+01
  0.1000000E+01  0.2203010E+00  0.1149569E+01 -0.3206744E-07  0.1268757E-05  0.6834218E+00  0.3564352E+01
  0.1010000E+01  0.2203010E+00  0.1247112E+01 -0.3206744E-07  0.1237085E-05  0.6834218E+00  0.3866848E+01
  0.1020000E+01  0.2203010E+00  0.1292452E+01 -0.3206744E-07  0.1185922E-05  0.6834218E+00  0.4007477E+01
  0.1030000E+01  0.2203010E+00  0.1285190E+01 -0.3206744E-07  0.1117647E-05  0.6834218E+00  0.3985006E+01
  0.1040000E+01  0.2203010E+00  0.1226971E+01 -0.3206744E-07  0.1035063E-05  0.6834218E+00  0.3804525E+01
  0.1050000E+01  0.2203010E+00  0.1121377E+01 -0.3206744E-07  0.9412921E-06  0.6834218E+00  0.3477147E+01
  0.1060000E+01  0.2203010E+00  0.9737483E+00 -0.3206744E-07  0.8396549E-06  0.6834218E+00  0.3019424E+01
  0.1070000E+01  0.2203010E+00  0.7909436E+00 -0.3206744E-07  0.7335485E-06  0.6834218E+00  0.2452627E+01
  0.1080000E+01  0.2203010E+00  0.5810429E+00 -0.3206744E-07  0.6263199E-06  0.6834218E+00  0.1801806E+01
  0.1090000E+01  0.2203010E+00  0.3529968E+00 -0.3206744E-07  0.5211522E-06  0.6834218E+00  0.1094717E+01
  0.1100000E+01  0.2203010E+00  0.1162895E+00 -0.3206744E-07  0.4209556E-06  0.6834218E+00  0.3607613E+00
  0.1110000E+01  0.2203010E+00 -0.1194695E+00 -0.3206744E-07  0.3282702E-06  0.6834218E+00 -0.3702576E+00
  0.1120000E+01  0.2203010E+00 -0.3449135E+00 -0.3206744E-07  0.2451857E-06  0.6834218E+00 -0.1069301E+01
  0.1130000E+01  0.2203010E+00 -0.5512702E+00 -0.3206744E-07  0.1732873E-06  0.6834218E+00 -0.1709166E+01
  0.1140000E+01  0.2203010E+00 -0.7307023E+00 -0.3206744E-07  0.1136133E-06  0.6834218E+00 -0.2265550E+01
  0.1150000E+01  0.2203010E+00 -0.8765938E+00 -0.3206744E-07  0.6664379E-07  0.6834218E+00 -0.2717940E+01
  0.1160000E+01  0.2203010E+00 -0.9837791E+00 -0.3206744E-07  0.3230307E-07  0.6834218E+00 -0.3050316E+01
  0.1170000E+01  0.2203010E+00 -0.1048724E+01 -0.3206744E-07  0.9995303E-08  0.6834218E+00 -0.3251719E+01
  0.1180000E+01  0.2203010E+00 -0.1069631E+01 -0.3206744E-07 -0.1349351E-08  0.6834218E+00 -0.3316576E+01
  0.1190000E+01  0.2203010E+00 -0.1046481E+01 -0.3206744E-07 -0.3207029E-08  0.6834218E+00 -0.3244823E+01
  0.1200000E+01  0.2203010E+00 -0.9809922E+00 -0.3206744E-07  0.2626336E-08  0.6834218E+00 -0.3041788E+01
  0.1210000E+01  0.2203010E+00 -0.8765294E+00 -0.3206744E-07  0.1412402E-07  0.6834218E+00 -0.2717905E+01
  0.1220000E+01  0.2203010E+00 -0.7379386E+00 -0.3206744E-07  0.2913677E-07  0.6834218E+00 -0.2288198E+01
  0.1230000E+01  0.2203010E+00 -0.5713329E+00 -0.3206744E-07  0.4549304E-07  0.6834218E+00 -0.1771622E+01
  0.1240000E+01  0.2203010E+00 -0.3838351E+00 -0.3206744E-07  0.6110331E-07  0.6834218E+00 -0.1190259E+01
  0.1250000E+01  0.2203010E+00 -0.1832578E+00 -0.3206744E-07  0.7406052E-07  0.6834218E+00 -0.5683364E+00
  0.1260000E+01  0.2203010E+00  0.2218980E-01 -0.3206744E-07  0.8272789E-07  0.6834218E+00  0.6869250E-01
  0.1270000E+01  0.2203010E+00  0.2242381E+00 -0.3206744E-07  0.8580912E-07  0.6834218E+00  0.6951862E+00
  0.1280000E+01  0.2203010E+00  0.4148960E+00 -0.3206744E-07  0.8241679E-07  0.6834218E+00  0.1286367E+01
  0.1290000E+01  0.2203010E+00  0.5867463E+00 -0.3206744E-07  0.7210394E-07  0.6834218E+00  0.1819234E+01
  0.1300000E+01  0.2203010E+00  0.7332336E+00 -0.3206744E-07  0.5488665E-07  0.6834218E+00  0.2273465E+01
  0.1310000E+01  0.2203010E+00  0.8489118E+00 -0.3206744E-07  0.3124620E-07  0.6834218E+00  0.2632165E+01
  0.1320000E+01  0.2203010E+00  0.9296318E+00 -0.3206744E-07  0.2101122E-08  0.6834218E+00  0.2882478E+01
  0.1330000E+01  0.2203010E+00  0.9726962E+00 -0.3206744E-07 -0.3122906E-07  0.6834218E+00  0.3016029E+01
  0.1340000E+01  0.2203010E+00  0.9769314E+00 -0.3206744E-07 -0.6708860E-07  0.6834218E+00  0.3029184E+01
  0.1350000E+01  0.2203010E+00  0.9427177E+00 -0.3206744E-07 -0.1035607E-06  0.6834218E+00  0.2923120E+01
  0.1360000E+01  0.2203010E+00  0.8719469E+00 -0.3206744E-07 -0.1385537E-06  0.6834218E+00  0.2703702E+01
  0.1370000E+01  0.2203010E+00  0.7679247E+00 -0.3206744E-07 -0.1699023E-06  0.6834218E+00  0.2381180E+01
  0.1380000E+01  0.2203010E+00  0.6352265E+00 -0.3206744E-07 -0.1954694E-06  0.6834218E+00  0.1969739E+01
  0.1390000E+01  0.2203010E+00  0.4794841E+00 -0.3206744E-07 -0.2132480E-06  0.6834218E+00  0.1486841E+01
  0.1400000E+01  0.2203010E+00  0.3071574E+00 -0.3206744E-07 -0.2214617E-06  0.6834218E+00  0.9525155E+00
  0.1410000E+01  0.2203010E+00  0.1252719E+00 -0.3206744E-07 -0.2186558E-06  0.6834218E+00  0.3885481E+00
  0.1420000E+01  0.2203010E+00 -0.5887372E-01 -0.3206744E-07 -0.2037795E-06  0.6834218E+00 -0.1824327E+00
  0.1430000E+01  0.2203010E+00 -0.2379940E+00 -0.3206744E-07 -0.1762487E-06  0.6834218E+00 -0.7378353E+00
  0.1440000E+01  0.2203010E+00 -0.4051127E+00 -0.3206744E-07 -0.1359939E-06  0.6834218E+00 -0.1256030E+01
  0.1450000E+01  0.2203010E+00 -0.5538157E+00 -0.3206744E-07 -0.8348625E-07  0.6834218E+00 -0.1717125E+01
  0.1460000E+01  0.2203010E+00 -0.6785131E+00 -0.3206744E-07 -0.1974382E-07  0.6834218E+00 -0.2103790E+01
  0.1470000E+01  0.2203010E+00 -0.7746363E+00 -0.3206744E-07  0.5368459E-07  0.6834218E+00 -0.2401857E+01
  0.1480000E+01  0.2203010E+00 -0.8388048E+00 -0.3206744E-07  0.1347612E-06  0.6834218E+00 -0.2600845E+01
  0.1490000E+01  0.2203010E+00 -0.8689489E+00 -0.3206744E-07  0.2210122E-06  0.6834218E+00 -0.2694335E+01
  0.1500000E+01  0.2203010E+00 -0.8643662E+00 -0.3206744E-07  0.3096107E-06  0.6834218E+00 -0.2680146E+01
  0.1510000E+01  0.2203010E+00 -0.8257321E+00 -0.3206744E-07  0.3974677E-06  0.6834218E+00 -0.2560375E+01
  0.1520000E+01  0.2203010E+00 -0.7550550E+00 -0.3206744E-07  0.4813367E-06  0.6834218E+00 -0.2341246E+01
  0.1530000E+01  0.2203010E+00 -0.6555798E+00 -0.3206744E-07  0.5579301E-06  0.6834218E+00 -0.2032822E+01
  0.1540000E+01  0.2203010E+00 -0.5316381E+00 -0.3206744E-07  0.6240354E-06  0.6834218E+00 -0.1648533E+01
  0.1550000E+01  0.2203010E+00 -0.3884749E+00 -0.3206744E-07  0.6766346E-06  0.6834218E+00 -0.1204638E+01
  0.1560000E+01  0.2203010E+00 -0.2320103E+00 -0.3206744E-07  0.7130158E-06  0.6834218E+00 -0.7194964E+00
  0.1570000E+01  0.2203010E+00 -0.6861862E-01 -0.3206744E-07  0.7308808E-06  0.6834218E+00 -0.2128725E+00
  0.1580000E+01  0.2203010E+00  0.9514806E-01 -0.3206744E-07  0.7284345E-06  0.6834218E+00  0.2949168E+00
  0.1590000E+01  0.2203010E+00  0.2528044E+00 -0.3206744E-07  0.7044599E-06  0.6834218E+00  0.7837645E+00
  0.1600000E+01  0.2203010E+00  0.3981959E+00 -0.3206744E-07  0.6583753E-06  0.6834218E+00  0.1234588E+01
  0.1610000E+01  0.2203010E+00  0.5257376E+00 -0.3206744E-07  0.5902655E-06  0.6834218E+00  0.1630066E+01
  0.1620000E+01  0.2203010E+00  0.6306154E+00 -0.3206744E-07  0.5008985E-06  0.6834218E+00  0.1955275E+01
  0.1630000E+01  0.2203010E+00  0.7089833E+00 -0.3206744E-07  0.3917042E-06  0.6834218E+00  0.2198286E+01
  0.1640000E+01  0.2203010E+00  0.7580906E+00 -0.3206744E-07  0.2647451E-06  0.6834218E+00  0.2350569E+01
  0.1650000E+01  0.2203010E+00  0.7763711E+00 -0.3206744E-07  0.1226539E-06  0.6834218E+00  0.2407271E+01
  0.1660000E+01  0.2203010E+00  0.7635111E+00 -0.3206744E-07 -0.3144302E-07  0.6834218E+00  0.2367416E+01
  0.1670000E+01  0.2203010E+00  0.7204196E+00 -0.3206744E-07 -0.1940250E-06  0.6834218E+00  0.2233821E+01
  0.1680000E+01  0.2203010E+00  0.6491948E+00 -0.3206744E-07 -0.3612854E-06  0.6834218E+00  0.2012993E+01
  0.1690000E+01  0.2203010E+00  0.5530223E+00 -0.3206744E-07 -0.5292494E-06  0.6834218E+00  0.1714807E+01
  0.1700000E+01  0.2203010E+00  0.4360289E+00 -0.3206744E-07 -0.6939100E-06  0.6834218E+00  0.1352061E+01
  0.1710000E+01  0.2203010E+00  0.3031188E+00 -0.3206744E-07 -0.8513453E-06  0.6834218E+00  0.9399579E+00
  0.1720000E+01  0.2203010E+00  0.1597615E+00 -0.3206744E-07 -0.9978515E-06  0.6834218E+00  0.4954576E+00
  0.1730000E+01  0.2203010E+00  0.1176733E-01 -0.3206744E-07 -0.1130059E-05  0.6834218E+00  0.3657892E-01
  0.1740000E+01  0.2203010E+00 -0.1349294E+00 -0.3206744E-07 -0.1245029E-05  0.6834218E+00 -0.4182821E+00
  0.1750000E+01  0.2203010E+00 -0.2745252E+00 -0.3206744E-07 -0.1340360E-05  0.6834218E+00 -0.8511280E+00
  0.1760000E+01  0.2203010E+00 -0.4015703E+00 -0.3206744E-07 -0.1414250E-05  0.6834218E+00 -0.1245063E+01
  0.1770000E+01  0.2203010E+00 -0.5111744E+00 -0.3206744E-07 -0.1465545E-05  0.6834218E+00 -0.1584919E+01
  0.1780000E+01  0.2203010E+00 -0.5991955E+00 -0.3206744E-07 -0.1493773E-05  0.6834218E+00 -0.1857856E+01
  0.1790000E+01  0.2203010E+00 -0.6623948E+00 -0.3206744E-07 -0.1499145E-05  0.6834218E+00 -0.2053833E+01
  0.1800000E+01  0.2203010E+00 -0.6985590E+00 -0.3206744E-07 -0.1482538E-05  0.6834218E+00 -0.2165981E+01
  0.1810000E+01  0.2203010E+00 -0.7065650E+00 -0.3206744E-07 -0.1445452E-05  0.6834218E+00 -0.2190821E+01
  0.1820000E+01  0.2203010E+00 -0.6864202E+00 -0.3206744E-07 -0.1389944E-05  0.6834218E+00 -0.2128375E+01
  0.1830000E+01  0.2203010E+00 -0.6392455E+00 -0.3206744E-07 -0.1318556E-05  0.6834218E+00 -0.1982118E+01
  0.1840000E+01  0.2203010E+00 -0.5672204E+00 -0.3206744E-07 -0.1234206E-05  0.6834218E+00 -0.1758806E+01
  0.1850000E+01  0.2203010E+00 -0.4734862E+00 -0.3206744E-07 -0.1140091E-05  0.6834218E+00 -0.1468178E+01
  0.1860000E+01  0.2203010E+00 -0.3620026E+00 -0.3206744E-07 -0.1039560E-05  0.6834218E+00 -0.1122514E+01
  0.1870000E+01  0.2203010E+00 -0.2373844E+00 -0.3206744E-07 -0.9360048E-06  0.6834218E+00 -0.7361219E+00
  0.1880000E+01  0.2203010E+00 -0.1047235E+00 -0.3206744E-07 -0.8327311E-06  0.6834218E+00 -0.3247888E+00
  0.1890000E+01  0.2203010E+00  0.3063148E-01 -0.3206744E-07 -0.7328542E-06  0.6834218E+00  0.9490130E-01
  0.1900000E+01  0.2203010E+00  0.1632839E+00 -0.3206744E-07 -0.6391829E-06  0.6834218E+00  0.5062145E+00
  0.1910000E+01  0.2203010E+00  0.2880082E+00 -0.3206744E-07 -0.5541427E-06  0.6834218E+00  0.8929477E+00
  0.1920000E+01  0.2203010E+00  0.3999435E+00 -0.3206744E-07 -0.4796860E-06  0.6834218E+00  0.1240029E+01
  0.1930000E+01  0.2203010E+00  0.4947937E+00 -0.3206744E-07 -0.4172456E-06  0.6834218E+00  0.1534138E+01
  0.1940000E+01  0.2203010E+00  0.5689846E+00 -0.3206744E-07 -0.3676918E-06  0.6834218E+00  0.1764190E+01
  0.1950000E+01  0.2203010E+00  0.6197976E+00 -0.3206744E-07 -0.3313231E-06  0.6834218E+00  0.1921757E+01
  0.1960000E+01  0.2203010E+00  0.6454732E+00 -0.3206744E-07 -0.3078675E-06  0.6834218E+00  0.2001381E+01
  0.1970000E+01  0.2203010E+00  0.6452613E+00 -0.3206744E-07 -0.2965138E-06  0.6834218E+00  0.2000739E+01
  0.1980000E+01  0.2203010E+00  0.6194481E+00 -0.3206744E-07 -0.2959579E-06  0.6834218E+00  0.1920714E+01
  0.1990000E+01  0.2203010E+00  0.5693346E+00 -0.3206744E-07 -0.3044679E-06  0.6834218E+00  0.1765341E+01
  0.2000000E+01  0.2203010E+00  0.4971555E+00 -0.3206744E-07 -0.3199658E-06  0.6834218E+00  0.1541550E+01
  0.2010000E+01  0.2203010E+00  0.4060135E+00 -0.3206744E-07 -0.3401163E-06  0.6834218E+00  0.1258959E+01
  0.2020000E+01  0.2203010E+00  0.2997247E+00 -0.3206744E-07 -0.3624284E-06  0.6834218E+00  0.9293997E+00
  0.2030000E+01  0.2203010E+00  0.1826587E+00 -0.3206744E-07 -0.3843589E-06  0.6834218E+00  0.5664235E+00
  0.2040000E+01  0.2203010E+00  0.5957207E-01 -0.3206744E-07 -0.4034172E-06  0.6834218E+00  0.1847751E+00
  0.2050000E+01  0.2203010E+00 -0.6459040E-01 -0.3206744E-07 -0.4172634E-06  0.6834218E+00 -0.2002114E+00
  0.2060000E+01  0.2203010E+00 -0.1848951E+00 -0.3206744E-07 -0.4238044E-06  0.6834218E+00 -0.5732377E+00
  0.2070000E+01  0.2203010E+00 -0.2966072E+00 -0.3206744E-07 -0.4212689E-06  0.6834218E+00 -0.9196239E+00
  0.2080000E+01  0.2203010E+00 -0.3953867E+00 -0.3206744E-07 -0.4082826E-06  0.6834218E+00 -0.1225912E+01
  0.2090000E+01  0.2203010E+00 -0.4774475E+00 -0.3206744E-07 -0.3839150E-06  0.6834218E+00 -0.1480364E+01
  0.2100000E+01  0.2203010E+00 -0.5396992E+00 -0.3206744E-07 -0.3477138E-06  0.6834218E+00 -0.1673396E+01
  0.2110000E+01  0.2203010E+00 -0.5798781E+00 -0.3206744E-07 -0.2997187E-06  0.6834218E+00 -0.1797988E+01
  0.2120000E+01  0.2203010E+00 -0.5966089E+00 -0.3206744E-07 -0.2404553E-06  0.6834218E+00 -0.1849876E+01
  0.2130000E+01  0.2203010E+00 -0.5894635E+00 -0.3206744E-07 -0.1709165E-06  0.6834218E+00 -0.1827733E+01
  0.2140000E+01  0.2203010E+00 -0.5589669E+00 -0.3206744E-07 -0.9251215E-07  0.6834218E+00 -0.1733184E+01
  0.2150000E+01  0.2203010E+00 -0.5065555E+00 -0.3206744E-07 -0.7015558E-08  0.6834218E+00 -0.1570684E+01
  0.2160000E+01  0.2203010E+00 -0.4345292E+00 -0.3206744E-07  0.8350264E-07  0.6834218E+00 -0.1347363E+01
  0.2170000E+01  0.2203010E+00 -0.3459437E+00 -0.3206744E-07  0.1767658E-06  0.6834218E+00 -0.1072698E+01
  0.2180000E+01  0.2203010E+00 -0.2444661E+00 -0.3206744E-07  0.2703719E-06  0.6834218E+00 -0.7580563E+00
  0.2190000E+01  0.2203010E+00 -0.1342603E+00 -0.3206744E-07  0.3618884E-06  0.6834218E+00 -0.4163494E+00
  0.2200000E+01  0.2203010E+00 -0.1978011E-01 -0.3206744E-07  0.4489457E-06  0.6834218E+00 -0.6138579E-01
  0.2210000E+01  0.2203010E+00  0.9438597E-01 -0.3206744E-07  0.5293286E-06  0.6834218E+00  0.2926051E+00
  0.2220000E+01  0.2203010E+00  0.2037148E+00 -0.3206744E-07  0.6010534E-06  0.6834218E+00  0.6316002E+00
  0.2230000E+01  0.2203010E+00  0.3039092E+00 -0.3206744E-07  0.6624442E-06  0.6834218E+00  0.9422734E+00
  0.2240000E+01  0.2203010E+00  0.3910742E+00 -0.3206744E-07  0.7121905E-06  0.6834218E+00  0.1212550E+01
  0.2250000E+01  0.2203010E+00  0.4618789E+00 -0.3206744E-07  0.7493949E-06  0.6834218E+00  0.1432099E+01
  0.2260000E+01  0.2203010E+00  0.5136659E+00 -0.3206744E-07  0.7736011E-06  0.6834218E+00  0.1592683E+01
  0.2270000E+01  0.2203010E+00  0.5445544E+00 -0.3206744E-07  0.7848017E-06  0.6834218E+00  0.1688468E+01
  0.2280000E+01  0.2203010E+00  0.5535161E+00 -0.3206744E-07  0.7834419E-06  0.6834218E+00  0.1716265E+01
  0.2290000E+01  0.2203010E+00  0.5403952E+00 -0.3206744E-07  0.7703850E-06  0.6834218E+00  0.1675592E+01
  0.2300000E+01  0.2203010E+00  0.5059155E+00 -0.3206744E-07  0.7468877E-06  0.6834218E+00  0.1568693E+01
  0.2310000E+01  0.2203010E+00  0.4516512E+00 -0.3206744E-07  0.7145364E-06  0.6834218E+00  0.1400446E+01
  0.2320000E+01  0.2203010E+00  0.3799313E+00 -0.3206744E-07  0.6751884E-06  0.6834218E+00  0.1178075E+01
  0.2330000E+01  0.2203010E+00  0.2937551E+00 -0.3206744E-07  0.6308956E-06  0.6834218E+00  0.9108785E+00
  0.2340000E+01  0.2203010E+00  0.1966859E+00 -0.3206744E-07  0.5838277E-06  0.6834218E+00  0.6099043E+00
  0.2350000E+01  0.2203010E+00  0.9267195E-01 -0.3206744E-07  0.5361858E-06  0.6834218E+00  0.2873957E+00
  0.2360000E+01  0.2203010E+00 -0.1409525E-01 -0.3206744E-07  0.4901233E-06  0.6834218E+00 -0.4365182E-01
  0.2370000E+01  0.2203010E+00 -0.1193531E+00 -0.3206744E-07  0.4476614E-06  0.6834218E+00 -0.3700231E+00
  0.2380000E+01  0.2203010E+00 -0.2189338E+00 -0.3206744E-07  0.4106166E-06  0.6834218E+00 -0.6787923E+00
  0.2390000E+01  0.2203010E+00 -0.3089389E+00 -0.3206744E-07  0.3805367E-06  0.6834218E+00 -0.9578719E+00
  0.2400000E+01  0.2203010E+00 -0.3858761E+00 -0.3206744E-07  0.3586485E-06  0.6834218E+00 -0.1196435E+01
  0.2410000E+01  0.2203010E+00 -0.4468050E+00 -0.3206744E-07  0.3458178E-06  0.6834218E+00 -0.1385363E+01
  0.2420000E+01  0.2203010E+00 -0.4894516E+00 -0.3206744E-07  0.3425175E-06  0.6834218E+00 -0.1517604E+01
  0.2430000E+01  0.2203010E+00 -0.5122813E+00 -0.3206744E-07  0.3488244E-06  0.6834218E+00 -0.1588400E+01
  0.2440000E+01  0.2203010E+00 -0.5145534E+00 -0.3206744E-07  0.3644217E-06  0.6834218E+00 -0.1595455E+01
  0.2450000E+01  0.2203010E+00 -0.4963646E+00 -0.3206744E-07  0.3886173E-06  0.6834218E+00 -0.1539068E+01
  0.2460000E+01  0.2203010E+00 -0.4586163E+00 -0.3206744E-07  0.4203758E-06  0.6834218E+00 -0.1422032E+01
  0.2470000E+01  0.2203010E+00 -0.4029593E+00 -0.3206744E-07  0.4583685E-06  0.6834218E+00 -0.1249468E+01
  0.2480000E+01  0.2203010E+00 -0.3317707E+00 -0.3206744E-07  0.5010277E-06  0.6834218E+00 -0.1028742E+01
  0.2490000E+01  0.2203010E+00 -0.2480067E+00 -0.3206744E-07  0.5466086E-06  0.6834218E+00 -0.7690256E+00
  0.2500000E+01  0.2203010E+00 -0.1551004E+00 -0.3206744E-07  0.5932628E-06  0.6834218E+00 -0.4809578E+00
  0.2510000E+01  0.2203010E+00 -0.5681328E-01 -0.3206744E-07  0.6391096E-06  0.6834218E+00 -0.1762061E+00
  0.2520000E+01  0.2203010E+00  0.4290334E-01 -0.3206744E-07  0.6823010E-06  0.6834218E+00  0.1329811E+00
  0.2530000E+01  0.2203010E+00  0.1400800E+00 -0.3206744E-07  0.7211020E-06  0.6834218E+00  0.4342940E+00
  0.2540000E+01  0.2203010E+00  0.2308793E+00 -0.3206744E-07  0.7539427E-06  0.6834218E+00  0.7158346E+00
  0.2550000E+01  0.2203010E+00  0.3117475E+00 -0.3206744E-07  0.7794799E-06  0.6834218E+00  0.9665833E+00
  0.2560000E+01  0.2203010E+00  0.3795652E+00 -0.3206744E-07  0.7966401E-06  0.6834218E+00  0.1176869E+01
  0.2570000E+01  0.2203010E+00  0.4317401E+00 -0.3206744E-07  0.8046516E-06  0.6834218E+00  0.1338653E+01
  0.2580000E+01  0.2203010E+00  0.4663320E+00 -0.3206744E-07  0.8030696E-06  0.6834218E+00  0.1445919E+01
  0.2590000E+01  0.2203010E+00  0.4821155E+00 -0.3206744E-07  0.7917812E-06  0.6834218E+00  0.1494866E+01
  0.2600000E+01  0.2203010E+00  0.4786152E+00 -0.3206744E-07  0.7709998E-06  0.6834218E+00  0.1484021E+01
  0.2610000E+01  0.2203010E+00  0.4561282E+00 -0.3206744E-07  0.7412530E-06  0.6834218E+00  0.1414306E+01
  0.2620000E+01  0.2203010E+00  0.4157048E+00 -0.3206744E-07  0.7033453E-06  0.6834218E+00  0.1288975E+01
  0.2630000E+01  0.2203010E+00  0.3590925E+00 -0.3206744E-07  0.6583297E-06  0.6834218E+00  0.1113447E+01
  0.2640000E+01  0.2203010E+00  0.2886744E+00 -0.3206744E-07  0.6074543E-06  0.6834218E+00  0.8951111E+00
  0.2650000E+01  0.2203010E+00  0.2073522E+00 -0.3206744E-07  0.5521072E-06  0.6834218E+00  0.6429638E+00
  0.2660000E+01  0.2203010E+00  0.1184457E+00 -0.3206744E-07  0.4937675E-06  0.6834218E+00  0.3672985E+00
  0.2670000E+01  0.2203010E+00  0.2554567E-01 -0.3206744E-07  0.4339450E-06  0.6834218E+00  0.7924848E-01
  0.2680000E+01  0.2203010E+00 -0.6762889E-01 -0.3206744E-07  0.3741156E-06  0.6834218E+00 -0.2096524E+00
  0.2690000E+01  0.2203010E+00 -0.1573787E+00 -0.3206744E-07  0.3156787E-06  0.6834218E+00 -0.4879372E+00
  0.2700000E+01  0.2203010E+00 -0.2401614E+00 -0.3206744E-07  0.2599062E-06  0.6834218E+00 -0.7446207E+00
  0.2710000E+01  0.2203010E+00 -0.3127493E+00 -0.3206744E-07  0.2078928E-06  0.6834218E+00 -0.9696959E+00
  0.2720000E+01  0.2203010E+00 -0.3723418E+00 -0.3206744E-07  0.1605388E-06  0.6834218E+00 -0.1154478E+01
  0.2730000E+01  0.2203010E+00 -0.4166746E+00 -0.3206744E-07  0.1185147E-06  0.6834218E+00 -0.1291944E+01
  0.2740000E+01  0.2203010E+00 -0.4441079E+00 -0.3206744E-07  0.8225491E-07  0.6834218E+00 -0.1377012E+01
  0.2750000E+01  0.2203010E+00 -0.4536873E+00 -0.3206744E-07  0.5195696E-07  0.6834218E+00 -0.1406722E+01
  0.2760000E+01  0.2203010E+00 -0.4451681E+00 -0.3206744E-07  0.2758866E-07  0.6834218E+00 -0.1380315E+01
  0.2770000E+01  0.2203010E+00 -0.4190325E+00 -0.3206744E-07  0.8906294E-08  0.6834218E+00 -0.1299285E+01
  0.2780000E+01  0.2203010E+00 -0.3764550E+00 -0.3206744E-07 -0.4521417E-08  0.6834218E+00 -0.1167273E+01