 VARIABLES="Time (s)"
"AddedMass    1" "IRF    1"
"AddedMass    2" "IRF    2"
"AddedMass    3" "IRF    3"
Zone t="DoF    1",I=   160,F=POINT
  0.0000000E+00  0.7183927E+05  0.1474297E+06 -0.3577151E-02  0.2156907E-02  0.3895607E+05 -0.1737998E+04
  0.1000000E+00  0.7183927E+05  0.1453602E+06 -0.3577151E-02  0.2253909E-02  0.3895607E+05 -0.1545681E+04
  0.2000000E+00  0.7183927E+05  0.1392182E+06 -0.3577151E-02  0.2529728E-02  0.3895607E+05 -0.9812186E+03
  0.3000000E+00  0.7183927E+05  0.1291998E+06 -0.3577151E-02  0.2940395E-02  0.3895607E+05 -0.8136468E+02
  0.4000000E+00  0.7183927E+05  0.1156242E+06 -0.3577151E-02  0.3417845E-02  0.3895607E+05  0.1094966E+04
  0.5000000E+00  0.7183927E+05  0.9892216E+05 -0.3577151E-02  0.3877204E-02  0.3895607E+05  0.2470068E+04
  0.6000000E+00  0.7183927E+05  0.7961996E+05 -0.3577151E-02  0.4225989E-02  0.3895607E+05  0.3951901E+04
  0.7000000E+00  0.7183927E+05  0.5832140E+05 -0.3577151E-02  0.4374328E-02  0.3895607E+05  0.5439359E+04
  0.8000000E+00  0.7183927E+05  0.3568591E+05 -0.3577151E-02  0.4245205E-02  0.3895607E+05  0.6828096E+04
  0.9000000E+00  0.7183927E+05  0.1240565E+05 -0.3577151E-02  0.3783712E-02  0.3895607E+05  0.8016530E+04
  0.1000000E+01  0.7183927E+05 -0.1081832E+05 -0.3577151E-02  0.2964399E-02  0.3895607E+05  0.8911728E+04
  0.1100000E+01  0.7183927E+05 -0.3329987E+05 -0.3577151E-02  0.1795942E-02  0.3895607E+05  0.9434832E+04
  0.1200000E+01  0.7183927E+05 -0.5439036E+05 -0.3577151E-02  0.3226428E-03  0.3895607E+05  0.9525702E+04
  0.1300000E+01  0.7183927E+05 -0.7349970E+05 -0.3577151E-02 -0.1377489E-02  0.3895607E+05  0.9146553E+04
  0.1400000E+01  0.7183927E+05 -0.9011434E+05 -0.3577151E-02 -0.3197948E-02  0.3895607E+05  0.8284358E+04
  0.1500000E+01  0.7183927E+05 -0.1038125E+06 -0.3577151E-02 -0.5011872E-02  0.3895607E+05  0.6951895E+04
  0.1600000E+01  0.7183927E+05 -0.1142755E+06 -0.3577151E-02 -0.6682379E-02  0.3895607E+05  0.5187391E+04
  0.1700000E+01  0.7183927E+05 -0.1212949E+06 -0.3577151E-02 -0.8074232E-02  0.3895607E+05  0.3052776E+04
  0.1800000E+01  0.7183927E+05 -0.1247759E+06 -0.3577151E-02 -0.9065808E-02  0.3895607E+05  0.6306553E+03
  0.1900000E+01  0.7183927E+05 -0.1247363E+06 -0.3577151E-02 -0.9560257E-02  0.3895607E+05 -0.1979817E+04
  0.2000000E+01  0.7183927E+05 -0.1213020E+06 -0.3577151E-02 -0.9494841E-02  0.3895607E+05 -0.4667964E+04
  0.2100000E+01  0.7183927E+05 -0.1146982E+06 -0.3577151E-02 -0.8847571E-02  0.3895607E+05 -0.7317170E+04
  0.2200000E+01  0.7183927E+05 -0.1052383E+06 -0.3577151E-02 -0.7640516E-02  0.3895607E+05 -0.9810764E+04
  0.2300000E+01  0.7183927E+05 -0.9330985E+05 -0.3577151E-02 -0.5939373E-02  0.3895607E+05 -0.1203790E+05
  0.2400000E+01  0.7183927E+05 -0.7935850E+05 -0.3577151E-02 -0.3849311E-02  0.3895607E+05 -0.1389903E+05
  0.2500000E+01  0.7183927E+05 -0.6387118E+05 -0.3577151E-02 -0.1507404E-02  0.3895607E+05 -0.1531076E+05
  0.2600000E+01  0.7183927E+05 -0.4735815E+05 -0.3577151E-02  0.9278493E-03  0.3895607E+05 -0.1620978E+05
  0.2700000E+01  0.7183927E+05 -0.3033590E+05 -0.3577151E-02  0.3288869E-02  0.3895607E+05 -0.1655579E+05
  0.2800000E+01  0.7183927E+05 -0.1330998E+05 -0.3577151E-02  0.5412349E-02  0.3895607E+05 -0.1633311E+05
  0.2900000E+01  0.7183927E+05  0.3240152E+04 -0.3577151E-02  0.7152341E-02  0.3895607E+05 -0.1555103E+05
  0.3000000E+01  0.7183927E+05  0.1887474E+05 -0.3577151E-02  0.8391977E-02  0.3895607E+05 -0.1424293E+05
  0.3100000E+01  0.7183927E+05  0.3320551E+05 -0.3577151E-02  0.9052892E-02  0.3895607E+05 -0.1246418E+05
  0.3200000E+01  0.7183927E+05  0.4590433E+05 -0.3577151E-02  0.9101376E-02  0.3895607E+05 -0.1028904E+05
  0.3300000E+01  0.7183927E+05  0.5671009E+05 -0.3577151E-02  0.8550866E-02  0.3895607E+05 -0.7806635E+04
  0.3400000E+01  0.7183927E+05  0.6543237E+05 -0.3577151E-02  0.7460439E-02  0.3895607E+05 -0.5116431E+04
  0.3500000E+01  0.7183927E+05  0.7195265E+05 -0.3577151E-02  0.5929540E-02  0.3895607E+05 -0.2323342E+04
  0.3600000E+01  0.7183927E+05  0.7622348E+05 -0.3577151E-02  0.4089274E-02  0.3895607E+05  0.4672822E+03
  0.3700000E+01  0.7183927E+05  0.7826489E+05 -0.3577151E-02  0.2091177E-02  0.3895607E+05  0.3154371E+04
  0.3800000E+01  0.7183927E+05  0.7815925E+05 -0.3577151E-02  0.9430530E-04  0.3895607E+05  0.5645473E+04
  0.3900000E+01  0.7183927E+05  0.7604437E+05 -0.3577151E-02 -0.1748169E-02  0.3895607E+05  0.7860441E+04
  0.4000000E+01  0.7183927E+05  0.7210555E+05 -0.3577151E-02 -0.3301628E-02  0.3895607E+05  0.9734252E+04
  0.4100000E+01  0.7183927E+05  0.6656650E+05 -0.3577151E-02 -0.4461001E-02  0.3895607E+05  0.1121900E+05
  0.4200000E+01  0.7183927E+05  0.5967996E+05 -0.3577151E-02 -0.5158950E-02  0.3895607E+05  0.1228487E+05
  0.4300000E+01  0.7183927E+05  0.5171826E+05 -0.3577151E-02 -0.5370669E-02  0.3895607E+05  0.1292018E+05
  0.4400000E+01  0.7183927E+05  0.4296376E+05 -0.3577151E-02 -0.5114881E-02  0.3895607E+05  0.1313059E+05
  0.4500000E+01  0.7183927E+05  0.3370007E+05 -0.3577151E-02 -0.4450944E-02  0.3895607E+05  0.1293744E+05
  0.4600000E+01  0.7183927E+05  0.2420382E+05 -0.3577151E-02 -0.3472385E-02  0.3895607E+05  0.1237558E+05
  0.4700000E+01  0.7183927E+05  0.1473743E+05 -0.3577151E-02 -0.2297462E-02  0.3895607E+05  0.1149063E+05
  0.4800000E+01  0.7183927E+05  0.5542914E+04 -0.3577151E-02 -0.1057699E-02  0.3895607E+05  0.1033613E+05
  0.4900000E+01  0.7183927E+05 -0.3163183E+04 -0.3577151E-02  0.1147201E-03  0.3895607E+05  0.8970417E+04
  0.5000000E+01  0.7183927E+05 -0.1119378E+05 -0.3577151E-02  0.1099321E-02  0.3895607E+05  0.7453753E+04
  0.5100000E+01  0.7183927E+05 -0.1839372E+05 -0.3577151E-02  0.1798557E-02  0.3895607E+05  0.5845619E+04
  0.5200000E+01  0.7183927E+05 -0.2464146E+05 -0.3577151E-02  0.2146688E-02  0.3895607E+05  0.4202371E+04
  0.5300000E+01  0.7183927E+05 -0.2984923E+05 -0.3577151E-02  0.2115646E-02  0.3895607E+05  0.2575406E+04
  0.5400000E+01  0.7183927E+05 -0.3396293E+05 -0.3577151E-02  0.1717279E-02  0.3895607E+05  0.1009738E+04
  0.5500000E+01  0.7183927E+05 -0.3696027E+05 -0.3577151E-02  0.1001856E-02  0.3895607E+05 -0.4568602E+03
  0.5600000E+01  0.7183927E+05 -0.3884886E+05 -0.3577151E-02  0.5290506E-04  0.3895607E+05 -0.1794242E+04
  0.5700000E+01  0.7183927E+05 -0.3966341E+05 -0.3577151E-02 -0.1021059E-02  0.3895607E+05 -0.2979848E+04
  0.5800000E+01  0.7183927E+05 -0.3946252E+05 -0.3577151E-02 -0.2097139E-02  0.3895607E+05 -0.3998274E+04
  0.5900000E+01  0.7183927E+05 -0.3832526E+05 -0.3577151E-02 -0.3050081E-02  0.3895607E+05 -0.4840638E+04
  0.6000000E+01  0.7183927E+05 -0.3634736E+05 -0.3577151E-02 -0.3764522E-02  0.3895607E+05 -0.5503711E+04
  0.6100000E+01  0.7183927E+05 -0.3363759E+05 -0.3577151E-02 -0.4146338E-02  0.3895607E+05 -0.5988997E+04
  0.6200000E+01  0.7183927E+05 -0.3031394E+05 -0.3577151E-02 -0.4132039E-02  0.3895607E+05 -0.6301786E+04
  0.6300000E+01  0.7183927E+05 -0.2650012E+05 -0.3577151E-02 -0.3695355E-02  0.3895607E+05 -0.6450299E+04
  0.6400000E+01  0.7183927E+05 -0.2232222E+05 -0.3577151E-02 -0.2850357E-02  0.3895607E+05 -0.6444966E+04
  0.6500000E+01  0.7183927E+05 -0.1790533E+05 -0.3577151E-02 -0.1650798E-02  0.3895607E+05 -0.6297811E+04
  0.6600000E+01  0.7183927E+05 -0.1337106E+05 -0.3577151E-02 -0.1857832E-03  0.3895607E+05 -0.6022021E+04
  0.6700000E+01  0.7183927E+05 -0.8834795E+04 -0.3577151E-02  0.1427937E-02  0.3895607E+05 -0.5631655E+04
  0.6800000E+01  0.7183927E+05 -0.4403663E+04 -0.3577151E-02  0.3056253E-02  0.3895607E+05 -0.5141490E+04
  0.6900000E+01  0.7183927E+05 -0.1747252E+03 -0.3577151E-02  0.4559740E-02  0.3895607E+05 -0.4566921E+04
  0.7000000E+01  0.7183927E+05  0.3766504E+04 -0.3577151E-02  0.5806290E-02  0.3895607E+05 -0.3923930E+04
  0.7100000E+01  0.7183927E+05  0.7347064E+04 -0.3577151E-02  0.6683159E-02  0.3895607E+05 -0.3229054E+04
  0.7200000E+01  0.7183927E+05  0.1050737E+05 -0.3577151E-02  0.7107365E-02  0.3895607E+05 -0.2499298E+04
  0.7300000E+01  0.7183927E+05  0.1320155E+05 -0.3577151E-02  0.7033464E-02  0.3895607E+05 -0.1752030E+04
  0.7400000E+01  0.7183927E+05  0.1539754E+05 -0.3577151E-02  0.6457975E-02  0.3895607E+05 -0.1004724E+04
  0.7500000E+01  0.7183927E+05  0.1707708E+05 -0.3577151E-02  0.5420046E-02  0.3895607E+05 -0.2746605E+03
  0.7600000E+01  0.7183927E+05  0.1823500E+05 -0.3577151E-02  0.3998250E-02  0.3895607E+05  0.4214448E+03
  0.7700000E+01  0.7183927E+05  0.1887870E+05 -0.3577151E-02  0.2303820E-02  0.3895607E+05  0.1067924E+04
  0.7800000E+01  0.7183927E+05  0.1902712E+05 -0.3577151E-02  0.4709924E-03  0.3895607E+05  0.1650605E+04
  0.7900000E+01  0.7183927E+05  0.1870963E+05 -0.3577151E-02 -0.1354847E-02  0.3895607E+05  0.2157305E+04
  0.8000000E+01  0.7183927E+05  0.1796480E+05 -0.3577151E-02 -0.3029952E-02  0.3895607E+05  0.2578292E+04
  0.8100000E+01  0.7183927E+05  0.1683890E+05 -0.3577151E-02 -0.4424865E-02  0.3895607E+05  0.2906594E+04
  0.8200000E+01  0.7183927E+05  0.1538436E+05 -0.3577151E-02 -0.5435737E-02  0.3895607E+05  0.3138279E+04
  0.8300000E+01  0.7183927E+05  0.1365819E+05 -0.3577151E-02 -0.5993403E-02  0.3895607E+05  0.3272555E+04
  0.8400001E+01  0.7183927E+05  0.1172024E+05 -0.3577151E-02 -0.6069141E-02  0.3895607E+05  0.3311720E+04
  0.8500000E+01  0.7183927E+05  0.9631838E+04 -0.3577151E-02 -0.5676880E-02  0.3895607E+05  0.3261008E+04
  0.8600000E+01  0.7183927E+05  0.7453832E+04 -0.3577151E-02 -0.4871423E-02  0.3895607E+05  0.3128221E+04
  0.8700000E+01  0.7183927E+05  0.5245428E+04 -0.3577151E-02 -0.3743016E-02  0.3895607E+05  0.2923330E+04
  0.8800000E+01  0.7183927E+05  0.3062526E+04 -0.3577151E-02 -0.2408601E-02  0.3895607E+05  0.2657900E+04
  0.8900001E+01  0.7183927E+05  0.9568988E+03 -0.3577151E-02 -0.1000823E-02  0.3895607E+05  0.2344548E+04
  0.9000000E+01  0.7183927E+05 -0.1025396E+04 -0.3577151E-02  0.3445600E-03  0.3895607E+05  0.1996311E+04
  0.9100000E+01  0.7183927E+05 -0.2844266E+04 -0.3577151E-02  0.1501319E-02  0.3895607E+05  0.1626098E+04
  0.9200000E+01  0.7183927E+05 -0.4466625E+04 -0.3577151E-02  0.2364502E-02  0.3895607E+05  0.1246173E+04
  0.9300000E+01  0.7183927E+05 -0.5866554E+04 -0.3577151E-02  0.2860210E-02  0.3895607E+05  0.8677158E+03
  0.9400001E+01  0.7183927E+05 -0.7025511E+04 -0.3577151E-02  0.2952290E-02  0.3895607E+05  0.5005367E+03
  0.9500000E+01  0.7183927E+05 -0.7932344E+04 -0.3577151E-02  0.2645587E-02  0.3895607E+05  0.1528460E+03
  0.9600000E+01  0.7183927E+05 -0.8582987E+04 -0.3577151E-02  0.1985216E-02  0.3895607E+05 -0.1687956E+03
  0.9700000E+01  0.7183927E+05 -0.8980024E+04 -0.3577151E-02  0.1052102E-02  0.3895607E+05 -0.4594734E+03
  0.9800000E+01  0.7183927E+05 -0.9132179E+04 -0.3577151E-02 -0.4499517E-04  0.3895607E+05 -0.7157909E+03
  0.9900001E+01  0.7183927E+05 -0.9053415E+04 -0.3577151E-02 -0.1179931E-02  0.3895607E+05 -0.9356764E+03
  0.1000000E+02  0.7183927E+05 -0.8762535E+04 -0.3577151E-02 -0.2221567E-02  0.3895607E+05 -0.1118175E+04
  0.1010000E+02  0.7183927E+05 -0.8281862E+04 -0.3577151E-02 -0.3046475E-02  0.3895607E+05 -0.1263188E+04
  0.1020000E+02  0.7183927E+05 -0.7636886E+04 -0.3577151E-02 -0.3551095E-02  0.3895607E+05 -0.1371264E+04
  0.1030000E+02  0.7183927E+05 -0.6854851E+04 -0.3577151E-02 -0.3662088E-02  0.3895607E+05 -0.1443394E+04
  0.1040000E+02  0.7183927E+05 -0.5964375E+04 -0.3577151E-02 -0.3343817E-02  0.3895607E+05 -0.1480869E+04
  0.1050000E+02  0.7183927E+05 -0.4994451E+04 -0.3577151E-02 -0.2602498E-02  0.3895607E+05 -0.1485198E+04
  0.1060000E+02  0.7183927E+05 -0.3973776E+04 -0.3577151E-02 -0.1486212E-02  0.3895607E+05 -0.1458052E+04
  0.1070000E+02  0.7183927E+05 -0.2929985E+04 -0.3577151E-02 -0.8120891E-04  0.3895607E+05 -0.1401304E+04
  0.1080000E+02  0.7183927E+05 -0.1889413E+04 -0.3577151E-02  0.1495651E-02  0.3895607E+05 -0.1317068E+04
  0.1090000E+02  0.7183927E+05 -0.8762197E+03 -0.3577151E-02  0.3107149E-02  0.3895607E+05 -0.1207776E+04
  0.1100000E+02  0.7183927E+05  0.8777160E+02 -0.3577151E-02  0.4608226E-02  0.3895607E+05 -0.1076259E+04
  0.1110000E+02  0.7183927E+05  0.9832934E+03 -0.3577151E-02  0.5859235E-02  0.3895607E+05 -0.9258036E+03
  0.1120000E+02  0.7183927E+05  0.1794012E+04 -0.3577151E-02  0.6738801E-02  0.3895607E+05 -0.7601801E+03
  0.1130000E+02  0.7183927E+05  0.2506784E+04 -0.3577151E-02  0.7155390E-02  0.3895607E+05 -0.5836340E+03
  0.1140000E+02  0.7183927E+05  0.3111372E+04 -0.3577151E-02  0.7055902E-02  0.3895607E+05 -0.4008245E+03
  0.1150000E+02  0.7183927E+05  0.3600793E+04 -0.3577151E-02  0.6431197E-02  0.3895607E+05 -0.2166992E+03
  0.1160000E+02  0.7183927E+05  0.3971133E+04 -0.3577151E-02  0.5317414E-02  0.3895607E+05 -0.3632671E+02
  0.1170000E+02  0.7183927E+05  0.4221409E+04 -0.3577151E-02  0.3793373E-02  0.3895607E+05  0.1352694E+03
  0.1180000E+02  0.7183927E+05  0.4353584E+04 -0.3577151E-02  0.1973907E-02  0.3895607E+05  0.2933771E+03
  0.1190000E+02  0.7183927E+05  0.4372138E+04 -0.3577151E-02  0.1620187E-06  0.3895607E+05  0.4337730E+03
  0.1200000E+02  0.7183927E+05  0.4284046E+04 -0.3577151E-02 -0.1972797E-02  0.3895607E+05  0.5529673E+03
  0.1210000E+02  0.7183927E+05  0.4098410E+04 -0.3577151E-02 -0.3789544E-02  0.3895607E+05  0.6483384E+03
  0.1220000E+02  0.7183927E+05  0.3825963E+04 -0.3577151E-02 -0.5307836E-02  0.3895607E+05  0.7182708E+03
  0.1230000E+02  0.7183927E+05  0.3479064E+04 -0.3577151E-02 -0.6411296E-02  0.3895607E+05  0.7622263E+03
  0.1240000E+02  0.7183927E+05  0.3071062E+04 -0.3577151E-02 -0.7019371E-02  0.3895607E+05  0.7807280E+03
  0.1250000E+02  0.7183927E+05  0.2616091E+04 -0.3577151E-02 -0.7094453E-02  0.3895607E+05  0.7752753E+03
  0.1260000E+02  0.7183927E+05  0.2128301E+04 -0.3577151E-02 -0.6644891E-02  0.3895607E+05  0.7482438E+03
  0.1270000E+02  0.7183927E+05  0.1622187E+04 -0.3577151E-02 -0.5723963E-02  0.3895607E+05  0.7026821E+03
  0.1280000E+02  0.7183927E+05  0.1111425E+04 -0.3577151E-02 -0.4424742E-02  0.3895607E+05  0.6420920E+03
  0.1290000E+02  0.7183927E+05  0.6091572E+03 -0.3577151E-02 -0.2871505E-02  0.3895607E+05  0.5702128E+03
  0.1300000E+02  0.7183927E+05  0.1271550E+03 -0.3577151E-02 -0.1208224E-02  0.3895607E+05  0.4907672E+03
  0.1310000E+02  0.7183927E+05 -0.3238479E+03 -0.3577151E-02  0.4145977E-03  0.3895607E+05  0.4072850E+03
  0.1320000E+02  0.7183927E+05 -0.7348603E+03 -0.3577151E-02  0.1853503E-02  0.3895607E+05  0.3229047E+03
  0.1330000E+02  0.7183927E+05 -0.1098526E+04 -0.3577151E-02  0.2985187E-02  0.3895607E+05  0.2402365E+03
  0.1340000E+02  0.7183927E+05 -0.1409235E+04 -0.3577151E-02  0.3717300E-02  0.3895607E+05  0.1613257E+03
  0.1350000E+02  0.7183927E+05 -0.1663212E+04 -0.3577151E-02  0.3996680E-02  0.3895607E+05  0.8759111E+02
  0.1360000E+02  0.7183927E+05 -0.1858387E+04 -0.3577151E-02  0.3813670E-02  0.3895607E+05  0.1989799E+02
  0.1370000E+02  0.7183927E+05 -0.1994283E+04 -0.3577151E-02  0.3202529E-02  0.3895607E+05 -0.4137789E+02
  0.1380000E+02  0.7183927E+05 -0.2072174E+04 -0.3577151E-02  0.2237631E-02  0.3895607E+05 -0.9624947E+02
  0.1390000E+02  0.7183927E+05 -0.2094474E+04 -0.3577151E-02  0.1026144E-02  0.3895607E+05 -0.1449580E+03
  0.1400000E+02  0.7183927E+05 -0.2064901E+04 -0.3577151E-02 -0.3024966E-03  0.3895607E+05 -0.1878652E+03
  0.1410000E+02  0.7183927E+05 -0.1988031E+04 -0.3577151E-02 -0.1609064E-02  0.3895607E+05 -0.2253202E+03
  0.1420000E+02  0.7183927E+05 -0.1869307E+04 -0.3577151E-02 -0.2757737E-02  0.3895607E+05 -0.2575552E+03
  0.1430000E+02  0.7183927E+05 -0.1714701E+04 -0.3577151E-02 -0.3629269E-02  0.3895607E+05 -0.2846290E+03
  0.1440000E+02  0.7183927E+05 -0.1530503E+04 -0.3577151E-02 -0.4132063E-02  0.3895607E+05 -0.3063869E+03
  0.1450000E+02  0.7183927E+05 -0.1323173E+04 -0.3577151E-02 -0.4211072E-02  0.3895607E+05 -0.3224837E+03
  0.1460000E+02  0.7183927E+05 -0.1099333E+04 -0.3577151E-02 -0.3852916E-02  0.3895607E+05 -0.3324360E+03
  0.1470000E+02  0.7183927E+05 -0.8651428E+03 -0.3577151E-02 -0.3087179E-02  0.3895607E+05 -0.3356947E+03
  0.1480000E+02  0.7183927E+05 -0.6268524E+03 -0.3577151E-02 -0.1983652E-02  0.3895607E+05 -0.3317142E+03
  0.1490000E+02  0.7183927E+05 -0.3901487E+03 -0.3577151E-02 -0.6457228E-03  0.3895607E+05 -0.3201248E+03
  0.1500000E+02  0.7183927E+05 -0.1604091E+03 -0.3577151E-02  0.7994209E-03  0.3895607E+05 -0.3007609E+03
  0.1510000E+02  0.7183927E+05  0.5769966E+02 -0.3577151E-02  0.2212812E-02  0.3895607E+05 -0.2737657E+03
  0.1520000E+02  0.7183927E+05  0.2597744E+03 -0.3577151E-02  0.3456843E-02  0.3895607E+05 -0.2396774E+03
  0.1530000E+02  0.7183927E+05  0.4423377E+03 -0.3577151E-02  0.4408528E-02  0.3895607E+05 -0.1993886E+03
  0.1540000E+02  0.7183927E+05  0.6022234E+03 -0.3577151E-02  0.4971057E-02  0.3895607E+05 -0.1541848E+03
  0.1550000E+02  0.7183927E+05  0.7373408E+03 -0.3577151E-02  0.5083385E-02  0.3895607E+05 -0.1056456E+03
  0.1560000E+02  0.7183927E+05  0.8459756E+03 -0.3577151E-02  0.4726144E-02  0.3895607E+05 -0.5562994E+02
  0.1570000E+02  0.7183927E+05  0.9270707E+03 -0.3577151E-02  0.3923892E-02  0.3895607E+05 -0.6048237E+01
  0.1580000E+02  0.7183927E+05  0.9805635E+03 -0.3577151E-02  0.2743229E-02  0.3895607E+05  0.4115478E+02
  0.1590000E+02  0.7183927E+05  0.1006717E+04 -0.3577151E-02  0.1286962E-02  0.3895607E+05  0.8414551E+02
Zone t="DoF    2",I=   160,F=POINT
  0.0000000E+00 -0.3143163E-02  0.3215374E-01  0.7806349E+05  0.1115403E+06 -0.2954887E-02 -0.1635726E-02
  0.1000000E+00 -0.3143163E-02  0.3147123E-01  0.7806349E+05  0.1089554E+06 -0.2954887E-02 -0.1577618E-02
  0.2000000E+00 -0.3143163E-02  0.2945630E-01  0.7806349E+05  0.1013423E+06 -0.2954887E-02 -0.1406791E-02
  0.3000000E+00 -0.3143163E-02  0.2620493E-01  0.7806349E+05  0.8911668E+05 -0.2954887E-02 -0.1133563E-02
  0.4000000E+00 -0.3143163E-02  0.2187130E-01  0.7806349E+05  0.7294258E+05 -0.2954887E-02 -0.7745756E-03
  0.5000000E+00 -0.3143163E-02  0.1665940E-01  0.7806349E+05  0.5369109E+05 -0.2954887E-02 -0.3519747E-03
  0.6000000E+00 -0.3143163E-02  0.1081206E-01  0.7806349E+05  0.3238672E+05 -0.2954887E-02  0.1077087E-03
  0.7000000E+00 -0.3143163E-02  0.4598059E-02  0.7806349E+05  0.1014496E+05 -0.2954887E-02  0.5749405E-03
  0.8000000E+00 -0.3143163E-02 -0.1701951E-02  0.7806349E+05 -0.1189477E+05 -0.2954887E-02  0.1018789E-02
  0.9000000E+00 -0.3143163E-02 -0.7809787E-02  0.7806349E+05 -0.3263617E+05 -0.2954887E-02  0.1408680E-02
  0.1000000E+01 -0.3143163E-02 -0.1346361E-01  0.7806349E+05 -0.5108887E+05 -0.2954887E-02  0.1716237E-02
  0.1100000E+01 -0.3143163E-02 -0.1843049E-01  0.7806349E+05 -0.6642285E+05 -0.2954887E-02  0.1917101E-02
  0.1200000E+01 -0.3143163E-02 -0.2251694E-01  0.7806349E+05 -0.7801112E+05 -0.2954887E-02  0.1992631E-02
  0.1300000E+01 -0.3143163E-02 -0.2557703E-01  0.7806349E+05 -0.8545830E+05 -0.2954887E-02  0.1931375E-02
  0.1400000E+01 -0.3143163E-02 -0.2751753E-01  0.7806349E+05 -0.8861358E+05 -0.2954887E-02  0.1730184E-02
  0.1500000E+01 -0.3143163E-02 -0.2830015E-01  0.7806349E+05 -0.8756784E+05 -0.2954887E-02  0.1394894E-02
  0.1600000E+01 -0.3143163E-02 -0.2794066E-01  0.7806349E+05 -0.8263561E+05 -0.2954887E-02  0.9404624E-03
  0.1700000E+01 -0.3143163E-02 -0.2650526E-01  0.7806349E+05 -0.7432409E+05 -0.2954887E-02  0.3905150E-03
  0.1800000E+01 -0.3143163E-02 -0.2410461E-01  0.7806349E+05 -0.6329142E+05 -0.2954887E-02 -0.2237081E-03
  0.1900000E+01 -0.3143163E-02 -0.2088578E-01  0.7806349E+05 -0.5029779E+05 -0.2954887E-02 -0.8650033E-03
  0.2000000E+01 -0.3143163E-02 -0.1702295E-01  0.7806349E+05 -0.3615319E+05 -0.2954887E-02 -0.1492369E-02
  0.2100000E+01 -0.3143163E-02 -0.1270736E-01  0.7806349E+05 -0.2166511E+05 -0.2954887E-02 -0.2063569E-02
  0.2200000E+01 -0.3143163E-02 -0.8137179E-02  0.7806349E+05 -0.7590321E+04 -0.2954887E-02 -0.2537952E-02
  0.2300000E+01 -0.3143163E-02 -0.3507668E-02  0.7806349E+05  0.5407011E+04 -0.2954887E-02 -0.2879324E-02
  0.2400000E+01 -0.3143163E-02  0.9974892E-03  0.7806349E+05  0.1678749E+05 -0.2954887E-02 -0.3058676E-02
  0.2500000E+01 -0.3143163E-02  0.5213601E-02  0.7806349E+05  0.2615806E+05 -0.2954887E-02 -0.3056537E-02
  0.2600000E+01 -0.3143163E-02  0.9000808E-02  0.7806349E+05  0.3328216E+05 -0.2954887E-02 -0.2864782E-02
  0.2700000E+01 -0.3143163E-02  0.1224802E-01  0.7806349E+05  0.3807825E+05 -0.2954887E-02 -0.2487705E-02
  0.2800000E+01 -0.3143163E-02  0.1487516E-01  0.7806349E+05  0.4060822E+05 -0.2954887E-02 -0.1942223E-02
  0.2900000E+01 -0.3143163E-02  0.1683357E-01  0.7806349E+05  0.4105703E+05 -0.2954887E-02 -0.1257187E-02
  0.3000000E+01 -0.3143163E-02  0.1810498E-01  0.7806349E+05  0.3970590E+05 -0.2954887E-02 -0.4717807E-03
  0.3100000E+01 -0.3143163E-02  0.1869903E-01  0.7806349E+05  0.3690180E+05 -0.2954887E-02  0.3669212E-03
  0.3200000E+01 -0.3143163E-02  0.1864987E-01  0.7806349E+05  0.3302547E+05 -0.2954887E-02  0.1207048E-02
  0.3300000E+01 -0.3143163E-02  0.1801207E-01  0.7806349E+05  0.2846092E+05 -0.2954887E-02  0.1995512E-02
  0.3400000E+01 -0.3143163E-02  0.1685597E-01  0.7806349E+05  0.2356824E+05 -0.2954887E-02  0.2681774E-02
  0.3500000E+01 -0.3143163E-02  0.1526317E-01  0.7806349E+05  0.1866193E+05 -0.2954887E-02  0.3221522E-02
  0.3600000E+01 -0.3143163E-02  0.1332193E-01  0.7806349E+05  0.1399525E+05 -0.2954887E-02  0.3579990E-02
  0.3700000E+01 -0.3143163E-02  0.1112301E-01  0.7806349E+05  0.9751870E+04 -0.2954887E-02  0.3734611E-02
  0.3800000E+01 -0.3143163E-02  0.8756065E-02  0.7806349E+05  0.6044127E+04 -0.2954887E-02  0.3676792E-02
  0.3900000E+01 -0.3143163E-02  0.6306483E-02  0.7806349E+05  0.2917628E+04 -0.2954887E-02  0.3412661E-02
  0.4000000E+01 -0.3143163E-02  0.3853007E-02  0.7806349E+05  0.3608889E+03 -0.2954887E-02  0.2962667E-02
  0.4100000E+01 -0.3143163E-02  0.1465901E-02  0.7806349E+05 -0.1681415E+04 -0.2954887E-02  0.2360082E-02
  0.4200000E+01 -0.3143163E-02 -0.7942252E-03  0.7806349E+05 -0.3293150E+04 -0.2954887E-02  0.1648466E-02
  0.4300000E+01 -0.3143163E-02 -0.2876988E-02  0.7806349E+05 -0.4571127E+04 -0.2954887E-02  0.8783306E-03
  0.4400000E+01 -0.3143163E-02 -0.4742439E-02  0.7806349E+05 -0.5610695E+04 -0.2954887E-02  0.1031907E-03
  0.4500000E+01 -0.3143163E-02 -0.6360708E-02  0.7806349E+05 -0.6493705E+04 -0.2954887E-02 -0.6245900E-03
  0.4600000E+01 -0.3143163E-02 -0.7711446E-02  0.7806349E+05 -0.7279973E+04 -0.2954887E-02 -0.1257899E-02
  0.4700000E+01 -0.3143163E-02 -0.8782956E-02  0.7806349E+05 -0.8002484E+04 -0.2954887E-02 -0.1758528E-02
  0.4800000E+01 -0.3143163E-02 -0.9571209E-02  0.7806349E+05 -0.8666665E+04 -0.2954887E-02 -0.2100083E-02
  0.4900000E+01 -0.3143163E-02 -0.1007875E-01  0.7806349E+05 -0.9253147E+04 -0.2954887E-02 -0.2269922E-02
  0.5000000E+01 -0.3143163E-02 -0.1031366E-01  0.7806349E+05 -0.9723747E+04 -0.2954887E-02 -0.2269905E-02
  0.5100000E+01 -0.3143163E-02 -0.1028844E-01  0.7806349E+05 -0.1002921E+05 -0.2954887E-02 -0.2115918E-02
  0.5200000E+01 -0.3143163E-02 -0.1001912E-01  0.7806349E+05 -0.1011821E+05 -0.2954887E-02 -0.1836202E-02
  0.5300000E+01 -0.3143163E-02 -0.9524437E-02  0.7806349E+05 -0.9946061E+04 -0.2954887E-02 -0.1468606E-02
  0.5400000E+01 -0.3143163E-02 -0.8825263E-02  0.7806349E+05 -0.9482643E+04 -0.2954887E-02 -0.1057018E-02
  0.5500000E+01 -0.3143163E-02 -0.7944070E-02  0.7806349E+05 -0.8718027E+04 -0.2954887E-02 -0.6472711E-03
  0.5600000E+01 -0.3143163E-02 -0.6904739E-02  0.7806349E+05 -0.7665946E+04 -0.2954887E-02 -0.2828955E-03
  0.5700000E+01 -0.3143163E-02 -0.5732458E-02  0.7806349E+05 -0.6364314E+04 -0.2954887E-02 -0.1076592E-05
  0.5800000E+01 -0.3143163E-02 -0.4453767E-02  0.7806349E+05 -0.4873051E+04 -0.2954887E-02  0.1707910E-03
  0.5900000E+01 -0.3143163E-02 -0.3096669E-02  0.7806349E+05 -0.3269467E+04 -0.2954887E-02  0.2176767E-03
  0.6000000E+01 -0.3143163E-02 -0.1690758E-02  0.7806349E+05 -0.1641641E+04 -0.2954887E-02  0.1383243E-03
  0.6100000E+01 -0.3143163E-02 -0.2673251E-03  0.7806349E+05 -0.8084993E+02 -0.2954887E-02 -0.5459123E-04
  0.6200000E+01 -0.3143163E-02  0.1140747E-02  0.7806349E+05  0.1326557E+04 -0.2954887E-02 -0.3356256E-03
  0.6300000E+01 -0.3143163E-02  0.2499173E-02  0.7806349E+05  0.2506572E+04 -0.2954887E-02 -0.6689357E-03
  0.6400000E+01 -0.3143163E-02  0.3772841E-02  0.7806349E+05  0.3403917E+04 -0.2954887E-02 -0.1011674E-02
  0.6500000E+01 -0.3143163E-02  0.4926642E-02  0.7806349E+05  0.3986466E+04 -0.2954887E-02 -0.1318071E-02
  0.6600000E+01 -0.3143163E-02  0.5926496E-02  0.7806349E+05  0.4247315E+04 -0.2954887E-02 -0.1543921E-02
  0.6700000E+01 -0.3143163E-02  0.6740798E-02  0.7806349E+05  0.4204648E+04 -0.2954887E-02 -0.1650974E-02
  0.6800000E+01 -0.3143163E-02  0.7341941E-02  0.7806349E+05  0.3899188E+04 -0.2954887E-02 -0.1610884E-02
  0.6900000E+01 -0.3143163E-02  0.7707983E-02  0.7806349E+05  0.3389556E+04 -0.2954887E-02 -0.1408341E-02
  0.7000000E+01 -0.3143163E-02  0.7824277E-02  0.7806349E+05  0.2746212E+04 -0.2954887E-02 -0.1043064E-02
  0.7100000E+01 -0.3143163E-02  0.7684913E-02  0.7806349E+05  0.2044579E+04 -0.2954887E-02 -0.5304643E-03
  0.7200000E+01 -0.3143163E-02  0.7293818E-02  0.7806349E+05  0.1357818E+04 -0.2954887E-02  0.9913798E-04
  0.7300000E+01 -0.3143163E-02  0.6665402E-02  0.7806349E+05  0.7503729E+03 -0.2954887E-02  0.8026424E-03
  0.7400000E+01 -0.3143163E-02  0.5824556E-02  0.7806349E+05  0.2723506E+03 -0.2954887E-02  0.1527559E-02
  0.7500000E+01 -0.3143163E-02  0.4806028E-02  0.7806349E+05 -0.4416243E+02 -0.2954887E-02  0.2216333E-02
  0.7600000E+01 -0.3143163E-02  0.3653038E-02  0.7806349E+05 -0.1870539E+03 -0.2954887E-02  0.2811244E-02
  0.7700000E+01 -0.3143163E-02  0.2415243E-02  0.7806349E+05 -0.1640242E+03 -0.2954887E-02  0.3259466E-02
  0.7800000E+01 -0.3143163E-02  0.1146146E-02  0.7806349E+05 -0.5260351E+00 -0.2954887E-02  0.3517830E-02
  0.7900000E+01 -0.3143163E-02 -0.9997637E-04  0.7806349E+05  0.2640835E+03 -0.2954887E-02  0.3556872E-02
  0.8000000E+01 -0.3143163E-02 -0.1271347E-02  0.7806349E+05  0.5813018E+03 -0.2954887E-02  0.3363805E-02
  0.8100000E+01 -0.3143163E-02 -0.2321865E-02  0.7806349E+05  0.8993947E+03 -0.2954887E-02  0.2944068E-02
  0.8200000E+01 -0.3143163E-02 -0.3214067E-02  0.7806349E+05  0.1168843E+04 -0.2954887E-02  0.2321403E-02
  0.8300000E+01 -0.3143163E-02 -0.3921531E-02  0.7806349E+05  0.1347747E+04 -0.2954887E-02  0.1536290E-02
  0.8400001E+01 -0.3143163E-02 -0.4430451E-02  0.7806349E+05  0.1405949E+04 -0.2954887E-02  0.6429889E-03
  0.8500000E+01 -0.3143163E-02 -0.4740283E-02  0.7806349E+05  0.1327927E+04 -0.2954887E-02 -0.2946782E-03
  0.8600000E+01 -0.3143163E-02 -0.4863387E-02  0.7806349E+05  0.1113986E+04 -0.2954887E-02 -0.1208464E-02
  0.8700000E+01 -0.3143163E-02 -0.4823554E-02  0.7806349E+05  0.7797738E+03 -0.2954887E-02 -0.2031178E-02
  0.8800000E+01 -0.3143163E-02 -0.4653565E-02  0.7806349E+05  0.3542372E+03 -0.2954887E-02 -0.2702269E-02
  0.8900001E+01 -0.3143163E-02 -0.4391957E-02  0.7806349E+05 -0.1236416E+03 -0.2954887E-02 -0.3172789E-02
  0.9000000E+01 -0.3143163E-02 -0.4079277E-02  0.7806349E+05 -0.6093746E+03 -0.2954887E-02 -0.3409527E-02
  0.9100000E+01 -0.3143163E-02 -0.3754040E-02  0.7806349E+05 -0.1057424E+04 -0.2954887E-02 -0.3397763E-02
  0.9200000E+01 -0.3143163E-02 -0.3448925E-02  0.7806349E+05 -0.1426112E+04 -0.2954887E-02 -0.3142519E-02
  0.9300000E+01 -0.3143163E-02 -0.3187383E-02  0.7806349E+05 -0.1681773E+04 -0.2954887E-02 -0.2668125E-02
  0.9400001E+01 -0.3143163E-02 -0.2981158E-02  0.7806349E+05 -0.1801991E+04 -0.2954887E-02 -0.2016169E-02
  0.9500000E+01 -0.3143163E-02 -0.2828883E-02  0.7806349E+05 -0.1777685E+04 -0.2954887E-02 -0.1241978E-02
  0.9600000E+01 -0.3143163E-02 -0.2716001E-02  0.7806349E+05 -0.1613788E+04 -0.2954887E-02 -0.4098885E-03
  0.9700000E+01 -0.3143163E-02 -0.2616029E-02  0.7806349E+05 -0.1328342E+04 -0.2954887E-02  0.4121347E-03
  0.9800000E+01 -0.3143163E-02 -0.2493171E-02  0.7806349E+05 -0.9505739E+03 -0.2954887E-02  0.1158321E-02
  0.9900001E+01 -0.3143163E-02 -0.2306021E-02  0.7806349E+05 -0.5175809E+03 -0.2954887E-02  0.1770554E-02
  0.1000000E+02 -0.3143163E-02 -0.2012216E-02  0.7806349E+05 -0.7067365E+02 -0.2954887E-02  0.2203259E-02
  0.1010000E+02 -0.3143163E-02 -0.1573348E-02  0.7806349E+05  0.3490008E+03 -0.2954887E-02  0.2427130E-02
  0.1020000E+02 -0.3143163E-02 -0.9600906E-03  0.7806349E+05  0.7042714E+03 -0.2954887E-02  0.2431425E-02
  0.1030000E+02 -0.3143163E-02 -0.1566053E-03  0.7806349E+05  0.9656487E+03 -0.2954887E-02  0.2224634E-02
  0.1040000E+02 -0.3143163E-02  0.8358078E-03  0.7806349E+05  0.1113802E+04 -0.2954887E-02  0.1833461E-02
  0.1050000E+02 -0.3143163E-02  0.1996490E-02  0.7806349E+05  0.1141282E+04 -0.2954887E-02  0.1300205E-02
  0.1060000E+02 -0.3143163E-02  0.3284931E-02  0.7806349E+05  0.1052629E+04 -0.2954887E-02  0.6787890E-03
  0.1070000E+02 -0.3143163E-02  0.4641915E-02  0.7806349E+05  0.8636853E+03 -0.2954887E-02  0.2980177E-04
  0.1080000E+02 -0.3143163E-02  0.5992632E-02  0.7806349E+05  0.5994134E+03 -0.2954887E-02 -0.5850754E-03
  0.1090000E+02 -0.3143163E-02  0.7251344E-02  0.7806349E+05  0.2912436E+03 -0.2954887E-02 -0.1108608E-02
  0.1100000E+02 -0.3143163E-02  0.8327489E-02  0.7806349E+05 -0.2642904E+02 -0.2954887E-02 -0.1493206E-02
  0.1110000E+02 -0.3143163E-02  0.9132564E-02  0.7806349E+05 -0.3198506E+03 -0.2954887E-02 -0.1705182E-02
  0.1120000E+02 -0.3143163E-02  0.9587417E-02  0.7806349E+05 -0.5592272E+03 -0.2954887E-02 -0.1727706E-02
  0.1130000E+02 -0.3143163E-02  0.9629316E-02  0.7806349E+05 -0.7215612E+03 -0.2954887E-02 -0.1562275E-02
  0.1140000E+02 -0.3143163E-02  0.9217983E-02  0.7806349E+05 -0.7928471E+03 -0.2954887E-02 -0.1228457E-02
  0.1150000E+02 -0.3143163E-02  0.8340328E-02  0.7806349E+05 -0.7691006E+03 -0.2954887E-02 -0.7620262E-03
  0.1160000E+02 -0.3143163E-02  0.7013200E-02  0.7806349E+05 -0.6564045E+03 -0.2954887E-02 -0.2115783E-03
  0.1170000E+02 -0.3143163E-02  0.5283972E-02  0.7806349E+05 -0.4699468E+03 -0.2954887E-02  0.3659876E-03