VARIABLES="w (rad/s)"
"abs(F   1   1)" "angle(F   1   1)"
"abs(F   1   2)" "angle(F   1   2)"
"abs(F   1   3)" "angle(F   1   3)"
Zone t="Diffraction force - beta =   0.000 deg",I=    32,F=POINT
  0.1000000E+00  0.2800956E+04 -0.1570793E+01  0.3514160E+06 -0.1828377E-04  0.4247490E+04 -0.1570800E+01
  0.2000000E+00  0.1118442E+05 -0.1570791E+01  0.3435575E+06 -0.2860652E-03  0.1694089E+05 -0.1570792E+01
  0.3000000E+00  0.2498243E+05 -0.1570744E+01  0.3306407E+06 -0.1395290E-02  0.3775194E+05 -0.1570745E+01
  0.4000000E+00  0.4404078E+05 -0.1570511E+01  0.3130661E+06 -0.4186821E-02  0.6631262E+05 -0.1570511E+01
  0.5000000E+00  0.6805122E+05 -0.1569746E+01  0.2914928E+06 -0.9571505E-02  0.1020053E+06 -0.1569746E+01
  0.6000001E+00  0.9671278E+05 -0.1567779E+01  0.2667558E+06 -0.1835430E-01  0.1441721E+06 -0.1567779E+01
  0.7000000E+00  0.1300579E+06 -0.1563512E+01  0.2397561E+06 -0.3110244E-01  0.1924733E+06 -0.1563512E+01
  0.8000001E+00  0.1674641E+06 -0.1555330E+01  0.2113540E+06 -0.4811662E-01  0.2458640E+06 -0.1555330E+01
  0.9000000E+00  0.2088201E+06 -0.1541023E+01  0.1823965E+06 -0.6942663E-01  0.3035791E+06 -0.1541023E+01
  0.1000000E+01  0.2534643E+06 -0.1517921E+01  0.1534908E+06 -0.9492381E-01  0.3644475E+06 -0.1517921E+01
  0.1100000E+01  0.3004236E+06 -0.1482908E+01  0.1252728E+06 -0.1243734E+00  0.4262901E+06 -0.1482913E+01
  0.1200000E+01  0.3460442E+06 -0.1433251E+01  0.9814535E+05 -0.1577834E+00  0.4840580E+06 -0.1433259E+01
  0.1300000E+01  0.3876421E+06 -0.1367919E+01  0.7253077E+05 -0.1949492E+00  0.5332305E+06 -0.1367918E+01
  0.1400000E+01  0.4185058E+06 -0.1289039E+01  0.4880238E+05 -0.2357822E+00  0.5649562E+06 -0.1289047E+01
  0.1500000E+01  0.4332962E+06 -0.1203618E+01  0.2724229E+05 -0.2795247E+00  0.5724739E+06 -0.1203632E+01
  0.1600000E+01  0.4291417E+06 -0.1122598E+01  0.8086109E+04 -0.3128666E+00  0.5534252E+06 -0.1122613E+01
  0.1700000E+01  0.4077580E+06 -0.1057609E+01  0.8497422E+04  0.2716534E+01  0.5117473E+06 -0.1057644E+01
  0.1800000E+01  0.3748495E+06 -0.1016975E+01  0.2241556E+05  0.2665926E+01  0.4563894E+06 -0.1016974E+01
  0.1900000E+01  0.3364718E+06 -0.1004025E+01  0.3375309E+05  0.2595122E+01  0.3959550E+06 -0.1003992E+01
  0.2000000E+01  0.2974798E+06 -0.1018074E+01  0.4263361E+05  0.2513294E+01  0.3368806E+06 -0.1017999E+01
  0.2100000E+01  0.2604253E+06 -0.1057742E+01  0.4924746E+05  0.2421193E+01  0.2826439E+06 -0.1057447E+01
  0.2200000E+01  0.2266656E+06 -0.1119383E+01  0.5392969E+05  0.2319080E+01  0.2344576E+06 -0.1118906E+01
  0.2300000E+01  0.1966205E+06 -0.1200355E+01  0.5700900E+05  0.2206100E+01  0.1926237E+06 -0.1199656E+01
  0.2400000E+01  0.1701802E+06 -0.1298739E+01  0.5915723E+05  0.2082380E+01  0.1568262E+06 -0.1297460E+01
  0.2500000E+01  0.1470747E+06 -0.1411875E+01  0.6265400E+05  0.1945797E+01  0.1263239E+06 -0.1410415E+01
  0.2600000E+01  0.1269653E+06 -0.1538789E+01  0.4275320E+05  0.1815313E+01  0.1005698E+06 -0.1537540E+01
  0.2700000E+01  0.1095073E+06 -0.1678629E+01  0.5129853E+05  0.1650860E+01  0.7895409E+05 -0.1678126E+01
  0.2800000E+01  0.9434003E+05 -0.1829962E+01  0.5061407E+05  0.1483294E+01  0.6083237E+05 -0.1831545E+01
  0.2900000E+01  0.8116335E+05 -0.1990926E+01  0.4882127E+05  0.1306922E+01  0.4569126E+05 -0.1997488E+01
  0.3000000E+01  0.6967065E+05 -0.2159733E+01  0.4662348E+05  0.1121443E+01  0.3299215E+05 -0.2175491E+01
  0.3100000E+01  0.5938293E+05 -0.2328830E+01  0.4423516E+05  0.9269013E+00  0.2183705E+05 -0.2359311E+01
  0.3200000E+01  0.4778226E+05 -0.2448555E+01  0.4180102E+05  0.7243472E+00  0.7907186E+04 -0.2519301E+01
