VARIABLES="w (rad/s)"
"abs(F   1   1)" "angle(F   1   1)"
"abs(F   1   2)" "angle(F   1   2)"
"abs(F   1   3)" "angle(F   1   3)"
Zone t="FKforce - beta =   0.000",I=    32,F=POINT
  0.1000000E+00  0.1554427E+04 -0.1570796E+01  0.4303259E+06 -0.4161807E-11  0.3445376E+04 -0.1570793E+01
  0.2000000E+00  0.6184469E+04 -0.1570796E+01  0.4256828E+06  0.2739166E-11  0.1370401E+05 -0.1570796E+01
  0.3000000E+00  0.1379075E+05 -0.1570796E+01  0.4180263E+06  0.2174435E-10  0.3054417E+05 -0.1570796E+01
  0.4000000E+00  0.2420878E+05 -0.1570796E+01  0.4074744E+06  0.2291449E-09  0.5358211E+05 -0.1570796E+01
  0.5000000E+00  0.3721067E+05 -0.1570796E+01  0.3941897E+06  0.1109867E-09  0.8228591E+05 -0.1570796E+01
  0.6000001E+00  0.5250777E+05 -0.1570796E+01  0.3783771E+06  0.1372928E-08  0.1159819E+06 -0.1570796E+01
  0.7000000E+00  0.6975380E+05 -0.1570796E+01  0.3602845E+06 -0.7113821E-10  0.1538622E+06 -0.1570796E+01
  0.8000001E+00  0.8854929E+05 -0.1570796E+01  0.3401931E+06  0.1424706E-08  0.1949951E+06 -0.1570796E+01
  0.9000000E+00  0.1084461E+06 -0.1570796E+01  0.3184164E+06  0.3931945E-09  0.2383408E+06 -0.1570796E+01
  0.1000000E+01  0.1289547E+06 -0.1570796E+01  0.2952941E+06  0.2834153E-08  0.2827655E+06 -0.1570796E+01
  0.1100000E+01  0.1495510E+06 -0.1570796E+01  0.2711884E+06 -0.4007001E-08  0.3270649E+06 -0.1570796E+01
  0.1200000E+01  0.1696854E+06 -0.1570796E+01  0.2464748E+06 -0.3405913E-08  0.3699856E+06 -0.1570796E+01
  0.1300000E+01  0.1887932E+06 -0.1570796E+01  0.2215380E+06  0.3948029E-08  0.4102574E+06 -0.1570796E+01
  0.1400000E+01  0.2063053E+06 -0.1570796E+01  0.1967617E+06  0.4313089E-08  0.4466245E+06 -0.1570796E+01
  0.1500000E+01  0.2216657E+06 -0.1570796E+01  0.1725213E+06  0.7479547E-08  0.4778764E+06 -0.1570796E+01
  0.1600000E+01  0.2343423E+06 -0.1570796E+01  0.1491753E+06 -0.2058978E-07  0.5028954E+06 -0.1570796E+01
  0.1700000E+01  0.2438460E+06 -0.1570796E+01  0.1270564E+06 -0.7585901E-08  0.5206896E+06 -0.1570796E+01
  0.1800000E+01  0.2497499E+06 -0.1570796E+01  0.1064607E+06  0.1125068E-08  0.5304372E+06 -0.1570796E+01
  0.1900000E+01  0.2517057E+06 -0.1570796E+01  0.8763952E+05  0.5032825E-09  0.5315268E+06 -0.1570796E+01
  0.2000000E+01  0.2494640E+06 -0.1570796E+01  0.7079083E+05 -0.2275037E-08  0.5235921E+06 -0.1570796E+01
  0.2100000E+01  0.2428933E+06 -0.1570796E+01  0.5605096E+05 -0.3348331E-07  0.5065470E+06 -0.1570796E+01
  0.2200000E+01  0.2319945E+06 -0.1570796E+01  0.4348953E+05 -0.9726120E-08  0.4806094E+06 -0.1570796E+01
  0.2300000E+01  0.2169178E+06 -0.1570796E+01  0.3310516E+05 -0.4402270E-07  0.4463149E+06 -0.1570796E+01
  0.2400000E+01  0.1979685E+06 -0.1570796E+01  0.2482464E+05 -0.7058240E-07  0.4045232E+06 -0.1570796E+01
  0.2500000E+01  0.1756118E+06 -0.1570796E+01  0.1850549E+05  0.3108185E-08  0.3563981E+06 -0.1570796E+01
  0.2600000E+01  0.1504689E+06 -0.1570796E+01  0.1394175E+05 -0.1065663E-06  0.3033938E+06 -0.1570796E+01
  0.2700000E+01  0.1233055E+06 -0.1570796E+01  0.1087377E+05 -0.1265365E-06  0.2472005E+06 -0.1570796E+01
  0.2800000E+01  0.9500905E+05 -0.1570796E+01  0.9002108E+04 -0.1571539E-06  0.1896899E+06 -0.1570796E+01
  0.2900000E+01  0.6655694E+05 -0.1570796E+01  0.8004104E+04 -0.1296276E-06  0.1328362E+06 -0.1570796E+01
  0.3000000E+01  0.3897795E+05 -0.1570796E+01  0.7553514E+04 -0.1046374E-06  0.7863030E+05 -0.1570796E+01
  0.3100000E+01  0.1330048E+05 -0.1570796E+01  0.7341285E+04 -0.1055768E-06  0.2897880E+05 -0.1570796E+01
  0.3200000E+01  0.9501726E+04  0.1570796E+01  0.7096295E+04 -0.2546594E-08  0.1439730E+05  0.1570796E+01
