VARIABLES="w (rad/s)"
"abs(F   1   1)" "angle(F   1   1)"
"abs(F   1   2)" "angle(F   1   2)"
"abs(F   1   3)" "angle(F   1   3)"
Zone t="Diffraction force - beta =   0.000 deg",I=    32,F=POINT
  0.1000000E+00  0.1212329E+04 -0.1570794E+01  0.4656799E+06 -0.2431906E-04  0.4821843E+04 -0.1570797E+01
  0.2000000E+00  0.4831966E+04 -0.1570794E+01  0.4598009E+06 -0.3840766E-03  0.1922141E+05 -0.1570795E+01
  0.3000000E+00  0.1079467E+05 -0.1570774E+01  0.4498796E+06 -0.1902623E-02  0.4296373E+05 -0.1570774E+01
  0.4000000E+00  0.1898905E+05 -0.1570676E+01  0.4360071E+06 -0.5828598E-02  0.7562862E+05 -0.1570676E+01
  0.5000000E+00  0.2927365E+05 -0.1570357E+01  0.4185475E+06 -0.1366322E-01  0.1166884E+06 -0.1570356E+01
  0.6000001E+00  0.4146073E+05 -0.1569555E+01  0.3981230E+06 -0.2695919E-01  0.1654365E+06 -0.1569555E+01
  0.7000000E+00  0.5535448E+05 -0.1567878E+01  0.3755037E+06 -0.4713777E-01  0.2211457E+06 -0.1567878E+01
  0.8000001E+00  0.7054684E+05 -0.1564814E+01  0.3515255E+06 -0.7534686E-01  0.2821829E+06 -0.1564813E+01
  0.9000000E+00  0.8682513E+05 -0.1559829E+01  0.3270522E+06 -0.1124462E+00  0.3477990E+06 -0.1559829E+01
  0.1000000E+01  0.1034936E+06 -0.1552502E+01  0.3026647E+06 -0.1589241E+00  0.4151608E+06 -0.1552502E+01
  0.1100000E+01  0.1200935E+06 -0.1542818E+01  0.2790090E+06 -0.2151357E+00  0.4825259E+06 -0.1542820E+01
  0.1200000E+01  0.1355507E+06 -0.1531272E+01  0.2563697E+06 -0.2810254E+00  0.5454774E+06 -0.1531272E+01
  0.1300000E+01  0.1490647E+06 -0.1519495E+01  0.2349552E+06 -0.3566560E+00  0.6008402E+06 -0.1519494E+01
  0.1400000E+01  0.1597090E+06 -0.1509987E+01  0.2149698E+06 -0.4419187E+00  0.6448015E+06 -0.1509985E+01
  0.1500000E+01  0.1668143E+06 -0.1506203E+01  0.1964609E+06 -0.5366757E+00  0.6745817E+06 -0.1506201E+01
  0.1600000E+01  0.1700821E+06 -0.1511886E+01  0.1794132E+06 -0.6407723E+00  0.6889007E+06 -0.1511884E+01
  0.1700000E+01  0.1697124E+06 -0.1530481E+01  0.1637665E+06 -0.7540741E+00  0.6884796E+06 -0.1530480E+01
  0.1800000E+01  0.1662815E+06 -0.1564601E+01  0.1494523E+06 -0.8764514E+00  0.6755804E+06 -0.1564601E+01
  0.1900000E+01  0.1605529E+06 -0.1615818E+01  0.1363870E+06 -0.1007913E+01  0.6532416E+06 -0.1615823E+01
  0.2000000E+01  0.1532946E+06 -0.1684676E+01  0.1244700E+06 -0.1148419E+01  0.6245554E+06 -0.1684690E+01
  0.2100000E+01  0.1451620E+06 -0.1770974E+01  0.1135918E+06 -0.1297981E+01  0.5921704E+06 -0.1771004E+01
  0.2200000E+01  0.1366718E+06 -0.1874118E+01  0.1036844E+06 -0.1456944E+01  0.5581856E+06 -0.1874177E+01
  0.2300000E+01  0.1281706E+06 -0.1993184E+01  0.9462159E+05 -0.1625699E+01  0.5240284E+06 -0.1993286E+01
  0.2400000E+01  0.1198768E+06 -0.2127221E+01  0.8625096E+05 -0.1805252E+01  0.4906014E+06 -0.2127375E+01
  0.2500000E+01  0.1119608E+06 -0.2275507E+01  0.7840784E+05 -0.1999523E+01  0.4586194E+06 -0.2275720E+01
  0.2600000E+01  0.1044587E+06 -0.2437091E+01  0.6995517E+05 -0.2227631E+01  0.4282362E+06 -0.2437398E+01
  0.2700000E+01  0.9739912E+05 -0.2611453E+01  0.8131501E+05 -0.1848528E+01  0.3995967E+06 -0.2611840E+01
  0.2800000E+01  0.9078859E+05 -0.2798335E+01  0.6438954E+05 -0.2511149E+01  0.3727392E+06 -0.2798812E+01
  0.2900000E+01  0.8463318E+05 -0.2997810E+01  0.5827584E+05 -0.2753588E+01  0.3477070E+06 -0.2998355E+01
  0.3000000E+01  0.7881572E+05  0.3072521E+01  0.5337696E+05 -0.2987086E+01  0.3240359E+06  0.3071908E+01
  0.3100000E+01  0.7315763E+05  0.2842490E+01  0.4907120E+05  0.3059546E+01  0.3010487E+06  0.2841813E+01
  0.3200000E+01  0.6633860E+05  0.2564414E+01  0.4517243E+05  0.2817004E+01  0.2736698E+06  0.2563562E+01
