VARIABLES="w (rad/s)"
"abs(F   1   1)" "angle(F   1   1)"
"abs(F   1   2)" "angle(F   1   2)"
"abs(F   1   3)" "angle(F   1   3)"
Zone t="Diffraction force - beta =   0.000 deg",I=   100,F=POINT
  0.1000000E+00  0.4695529E-01 -0.1570796E+01  0.5870128E-01 -0.3141156E+01  0.1399354E+00 -0.1570796E+01
  0.3010101E+00  0.4245311E+00 -0.1570796E+01  0.5351700E+00 -0.3137678E+01  0.1265183E+01 -0.1570796E+01
  0.5020202E+00  0.1182135E+01 -0.1570796E+01  0.1496900E+01 -0.3130839E+01  0.3522982E+01 -0.1570796E+01
  0.7030303E+00  0.2322677E+01 -0.1570795E+01  0.2968373E+01 -0.3120953E+01  0.6922000E+01 -0.1570795E+01
  0.9040404E+00  0.3840875E+01 -0.1570791E+01  0.4946695E+01 -0.3108185E+01  0.1144650E+02 -0.1570791E+01
  0.1105051E+01  0.5745496E+01 -0.1570779E+01  0.7435988E+01 -0.3092823E+01  0.1712263E+02 -0.1570779E+01
  0.1306061E+01  0.8008618E+01 -0.1570749E+01  0.1044046E+02 -0.3075200E+01  0.2386714E+02 -0.1570749E+01
  0.1507071E+01  0.1060825E+02 -0.1570685E+01  0.1394933E+02 -0.3055596E+01  0.3161449E+02 -0.1570685E+01
  0.1708081E+01  0.1364695E+02 -0.1570564E+01  0.1794566E+02 -0.3034298E+01  0.4067030E+02 -0.1570564E+01
  0.1909091E+01  0.1693573E+02 -0.1570347E+01  0.2240998E+02 -0.3011610E+01  0.5047139E+02 -0.1570347E+01
  0.2110101E+01  0.2070480E+02 -0.1569992E+01  0.2731050E+02 -0.2987794E+01  0.6170385E+02 -0.1569992E+01
  0.2311111E+01  0.2468162E+02 -0.1569429E+01  0.3259962E+02 -0.2963043E+01  0.7355540E+02 -0.1569429E+01
  0.2512121E+01  0.2910354E+02 -0.1568584E+01  0.3824679E+02 -0.2937664E+01  0.8673346E+02 -0.1568584E+01
  0.2713131E+01  0.3391179E+02 -0.1567361E+01  0.4419547E+02 -0.2911834E+01  0.1010626E+03 -0.1567361E+01
  0.2914141E+01  0.3886224E+02 -0.1565625E+01  0.5039283E+02 -0.2885737E+01  0.1158157E+03 -0.1565625E+01
  0.3115151E+01  0.4428848E+02 -0.1563267E+01  0.5679033E+02 -0.2859577E+01  0.1319869E+03 -0.1563267E+01
  0.3316161E+01  0.5015470E+02 -0.1560136E+01  0.6332402E+02 -0.2833487E+01  0.1494687E+03 -0.1560136E+01
  0.3517171E+01  0.5621845E+02 -0.1556030E+01  0.6993031E+02 -0.2807558E+01  0.1675395E+03 -0.1556029E+01
  0.3718182E+01  0.6241904E+02 -0.1550738E+01  0.7658801E+02 -0.2782094E+01  0.1860177E+03 -0.1550738E+01
  0.3919192E+01  0.6915427E+02 -0.1544153E+01  0.8319558E+02 -0.2756906E+01  0.2060898E+03 -0.1544153E+01
  0.4120202E+01  0.7628586E+02 -0.1536056E+01  0.8972670E+02 -0.2732273E+01  0.2273425E+03 -0.1536056E+01
  0.4321212E+01  0.8362204E+02 -0.1526181E+01  0.9613799E+02 -0.2708318E+01  0.2492047E+03 -0.1526181E+01
  0.4522222E+01  0.9095948E+02 -0.1514228E+01  0.1023582E+03 -0.2684895E+01  0.2710710E+03 -0.1514227E+01
  0.4723232E+01  0.9844569E+02 -0.1500072E+01  0.1083724E+03 -0.2662180E+01  0.2933808E+03 -0.1500072E+01
  0.4924242E+01  0.1063380E+03 -0.1483726E+01  0.1141441E+03 -0.2640275E+01  0.3169005E+03 -0.1483725E+01
  0.5125252E+01  0.1143879E+03 -0.1464937E+01  0.1195991E+03 -0.2618974E+01  0.3408892E+03 -0.1464936E+01
  0.5326262E+01  0.1223588E+03 -0.1443446E+01  0.1247169E+03 -0.2598361E+01  0.3646436E+03 -0.1443445E+01
  0.5527273E+01  0.1300573E+03 -0.1419020E+01  0.1295082E+03 -0.2578711E+01  0.3875850E+03 -0.1419019E+01
  0.5728283E+01  0.1372769E+03 -0.1391441E+01  0.1339365E+03 -0.2559882E+01  0.4091005E+03 -0.1391439E+01
  0.5929293E+01  0.1440975E+03 -0.1361017E+01  0.1379671E+03 -0.2541713E+01  0.4294255E+03 -0.1361015E+01
  0.6130303E+01  0.1505285E+03 -0.1328036E+01  0.1415775E+03 -0.2524198E+01  0.4485899E+03 -0.1328034E+01
  0.6331313E+01  0.1562666E+03 -0.1292383E+01  0.1447737E+03 -0.2507531E+01  0.4656898E+03 -0.1292381E+01
  0.6532323E+01  0.1610751E+03 -0.1254035E+01  0.1475418E+03 -0.2491697E+01  0.4800184E+03 -0.1254032E+01
  0.6733334E+01  0.1647368E+03 -0.1213138E+01  0.1498586E+03 -0.2476498E+01  0.4909303E+03 -0.1213135E+01
  0.6934343E+01  0.1672077E+03 -0.1170388E+01  0.1517188E+03 -0.2461921E+01  0.4982931E+03 -0.1170385E+01
  0.7135354E+01  0.1683697E+03 -0.1126035E+01  0.1531285E+03 -0.2448067E+01  0.5017554E+03 -0.1126031E+01
  0.7336363E+01  0.1680246E+03 -0.1080127E+01  0.1541023E+03 -0.2435023E+01  0.5007259E+03 -0.1080122E+01
  0.7537374E+01  0.1661484E+03 -0.1033105E+01  0.1546369E+03 -0.2422748E+01  0.4951341E+03 -0.1033100E+01
  0.7738384E+01  0.1627455E+03 -0.9856022E+00  0.1547176E+03 -0.2411047E+01  0.4849925E+03 -0.9855963E+00
  0.7939394E+01  0.1577757E+03 -0.9376584E+00  0.1543538E+03 -0.2399953E+01  0.4701817E+03 -0.9376508E+00
  0.8140405E+01  0.1513083E+03 -0.8894058E+00  0.1535638E+03 -0.2389507E+01  0.4509071E+03 -0.8893961E+00
  0.8341414E+01  0.1434547E+03 -0.8412553E+00  0.1523657E+03 -0.2379803E+01  0.4275017E+03 -0.8412440E+00
  0.8542424E+01  0.1343251E+03 -0.7932060E+00  0.1507730E+03 -0.2370847E+01  0.4002950E+03 -0.7931935E+00
  0.8743435E+01  0.1240371E+03 -0.7449896E+00  0.1487868E+03 -0.2362492E+01  0.3696358E+03 -0.7449746E+00
  0.8944445E+01  0.1127561E+03 -0.6963297E+00  0.1464255E+03 -0.2354741E+01  0.3360171E+03 -0.6963124E+00
  0.9145455E+01  0.1006297E+03 -0.6465316E+00  0.1437000E+03 -0.2347629E+01  0.2998791E+03 -0.6465101E+00
  0.9346465E+01  0.8780558E+02 -0.5942608E+00  0.1406358E+03 -0.2341162E+01  0.2616622E+03 -0.5942347E+00
  0.9547475E+01  0.7446326E+02 -0.5373250E+00  0.1372547E+03 -0.2335361E+01  0.2219012E+03 -0.5372910E+00
  0.9748485E+01  0.6076744E+02 -0.4712848E+00  0.1335821E+03 -0.2330371E+01  0.1810871E+03 -0.4712418E+00
  0.9949495E+01  0.4688935E+02 -0.3862509E+00  0.1296371E+03 -0.2326090E+01  0.1397298E+03 -0.3861912E+00
  0.1015051E+02  0.3311555E+02 -0.2568118E+00  0.1254378E+03 -0.2322568E+01  0.9868407E+02 -0.2567217E+00
  0.1035151E+02  0.2008603E+02  0.7415887E-02  0.1210012E+03 -0.2319773E+01  0.5985752E+02  0.7570818E-02
  0.1055252E+02  0.1114566E+02  0.8010853E+00  0.1163577E+03 -0.2317701E+01  0.3322148E+02  0.8012816E+00
  0.1075354E+02  0.1587937E+02  0.1877966E+01  0.1115266E+03 -0.2316651E+01  0.4733035E+02  0.1877904E+01
  0.1095455E+02  0.2773732E+02  0.2251401E+01  0.1065298E+03 -0.2316581E+01  0.8266602E+02  0.2251327E+01
  0.1115556E+02  0.4060876E+02  0.2404782E+01  0.1013913E+03 -0.2317808E+01  0.1210225E+03  0.2404723E+01
  0.1135657E+02  0.5343929E+02  0.2491822E+01  0.9614124E+02 -0.2320369E+01  0.1592572E+03  0.2491773E+01
  0.1155758E+02  0.6594115E+02  0.2550745E+01  0.9076213E+02 -0.2324512E+01  0.1965127E+03  0.2550704E+01
  0.1175859E+02  0.7797491E+02  0.2595166E+01  0.8527186E+02 -0.2331263E+01  0.2323735E+03  0.2595130E+01
  0.1195960E+02  0.8944256E+02  0.2630868E+01  0.7962137E+02 -0.2341201E+01  0.2665468E+03  0.2630836E+01
  0.1216061E+02  0.1002700E+03  0.2660975E+01  0.7373951E+02 -0.2357708E+01  0.2988125E+03  0.2660946E+01
  0.1236162E+02  0.1103822E+03  0.2687243E+01  0.6734279E+02 -0.2387833E+01  0.3289469E+03  0.2687215E+01
  0.1256263E+02  0.1197427E+03  0.2710313E+01  0.5854102E+02 -0.2475649E+01  0.3568410E+03  0.2710288E+01
  0.1276364E+02  0.1282915E+03  0.2731066E+01  0.8381386E+02  0.7855695E-01  0.3823159E+03  0.2731042E+01
  0.1296465E+02  0.1359809E+03  0.2750110E+01  0.6314830E+02 -0.2179857E+01  0.4052301E+03  0.2750088E+01
  0.1316566E+02  0.1427822E+03  0.2767543E+01  0.5462100E+02 -0.2262795E+01  0.4254973E+03  0.2767522E+01
  0.1336667E+02  0.1486511E+03  0.2783577E+01  0.4869432E+02 -0.2299793E+01  0.4429868E+03  0.2783557E+01
  0.1356768E+02  0.1535531E+03  0.2798448E+01  0.4350513E+02 -0.2325946E+01  0.4575948E+03  0.2798429E+01
  0.1376869E+02  0.1574808E+03  0.2812400E+01  0.3874014E+02 -0.2350209E+01  0.4692992E+03  0.2812383E+01
  0.1396970E+02  0.1604226E+03  0.2825490E+01  0.3431700E+02 -0.2373546E+01  0.4780648E+03  0.2825473E+01
  0.1417071E+02  0.1623692E+03  0.2838273E+01  0.3009660E+02 -0.2401325E+01  0.4838657E+03  0.2838256E+01
  0.1437172E+02  0.1633154E+03  0.2850098E+01  0.2620877E+02 -0.2430505E+01  0.4866848E+03  0.2850082E+01
  0.1457273E+02  0.1632286E+03  0.2861095E+01  0.2256116E+02 -0.2466092E+01  0.4864255E+03  0.2861080E+01
  0.1477374E+02  0.1621341E+03  0.2871409E+01  0.1919320E+02 -0.2507815E+01  0.4831635E+03  0.2871394E+01
  0.1497475E+02  0.1601236E+03  0.2881536E+01  0.1609050E+02 -0.2559808E+01  0.4771724E+03  0.2881521E+01
  0.1517576E+02  0.1571618E+03  0.2890819E+01  0.1327639E+02 -0.2624758E+01  0.4683454E+03  0.2890804E+01
  0.1537677E+02  0.1532779E+03  0.2898632E+01  0.1074694E+02 -0.2709475E+01  0.4567706E+03  0.2898617E+01
  0.1557778E+02  0.1486366E+03  0.2904292E+01  0.8526844E+01 -0.2822899E+01  0.4429392E+03  0.2904277E+01
  0.1577879E+02  0.1439352E+03  0.2898142E+01  0.6639144E+01 -0.2981826E+01  0.4289266E+03  0.2898127E+01
  0.1597980E+02  0.1305798E+03  0.2993245E+01  0.5144678E+01  0.3074366E+01  0.3891404E+03  0.2993231E+01
  0.1618081E+02  0.1269789E+03  0.2954857E+01  0.4128020E+01  0.2759522E+01  0.3784021E+03  0.2954843E+01
  0.1638182E+02  0.1191174E+03  0.2957125E+01  0.3651603E+01  0.2380396E+01  0.3549737E+03  0.2957110E+01
  0.1658283E+02  0.1107188E+03  0.2963525E+01  0.3674633E+01  0.2015383E+01  0.3299446E+03  0.2963509E+01
  0.1678384E+02  0.1016928E+03  0.2971421E+01  0.3960877E+01  0.1730004E+01  0.3030471E+03  0.2971405E+01
  0.1698485E+02  0.9213428E+02  0.2979506E+01  0.4341691E+01  0.1521937E+01  0.2745623E+03  0.2979490E+01
  0.1718586E+02  0.8216558E+02  0.2988223E+01  0.4702949E+01  0.1370470E+01  0.2448552E+03  0.2988206E+01
  0.1738687E+02  0.7185556E+02  0.2997541E+01  0.4968125E+01  0.1250568E+01  0.2141305E+03  0.2997522E+01
  0.1758788E+02  0.6142508E+02  0.3007829E+01  0.5153654E+01  0.1156014E+01  0.1830478E+03  0.3007809E+01
  0.1778889E+02  0.5088351E+02  0.3019687E+01  0.5200727E+01  0.1069359E+01  0.1516339E+03  0.3019665E+01
  0.1798990E+02  0.4034910E+02  0.3034119E+01  0.5188508E+01  0.9927409E+00  0.1202409E+03  0.3034093E+01
  0.1819091E+02  0.2992459E+02  0.3054107E+01  0.5023948E+01  0.9102117E+00  0.8917559E+02  0.3054074E+01
  0.1839192E+02  0.1971011E+02  0.3087966E+01  0.4688370E+01  0.8081169E+00  0.5873630E+02  0.3087921E+01
  0.1859293E+02  0.9847909E+01 -0.3108491E+01  0.4166916E+01  0.6587121E+00  0.2934675E+02 -0.3108573E+01
  0.1879394E+02  0.1581791E+01 -0.1814524E+01  0.3494459E+01  0.3067044E+00  0.4711663E+01 -0.1814636E+01
  0.1899495E+02  0.8972609E+01 -0.2894504E+00  0.8586418E+01 -0.9796458E+00  0.2673788E+02 -0.2893816E+00
  0.1919596E+02  0.1736334E+02 -0.1969922E+00  0.8560628E+01  0.1072655E+01  0.5174253E+02 -0.1969602E+00
  0.1939697E+02  0.2514199E+02 -0.1619270E+00  0.5519646E+01  0.9158953E+00  0.7492294E+02 -0.1619071E+00
  0.1959798E+02  0.3219209E+02 -0.1412292E+00  0.4361430E+01  0.7964675E+00  0.9593235E+02 -0.1412157E+00
  0.1979899E+02  0.3844012E+02 -0.1254261E+00  0.3598874E+01  0.6981276E+00  0.1145515E+03 -0.1254165E+00
  0.2000000E+02  0.4383147E+02 -0.1120885E+00  0.2996382E+01  0.5943791E+00  0.1306178E+03 -0.1120814E+00
