VARIABLES="w (rad/s)"
"abs(F   1   1)" "angle(F   1   1)"
"abs(F   1   2)" "angle(F   1   2)"
"abs(F   1   3)" "angle(F   1   3)"
Zone t="Diffraction force - beta =   0.000 deg",I=   100,F=POINT
  0.1000000E+00  0.1334412E+00 -0.1570791E+01  0.6975040E+03 -0.3675159E-07  0.3976806E+00 -0.1570793E+01
  0.3010101E+00  0.1207734E+01 -0.1570789E+01  0.6963295E+03 -0.3008695E-05  0.3599287E+01 -0.1570795E+01
  0.5020202E+00  0.3358291E+01 -0.1570793E+01  0.6939767E+03 -0.2319485E-04  0.1000837E+02 -0.1570797E+01
  0.7030303E+00  0.6583529E+01 -0.1570796E+01  0.6904149E+03 -0.8873147E-04  0.1962019E+02 -0.1570794E+01
  0.9040404E+00  0.1087144E+02 -0.1570794E+01  0.6856626E+03 -0.2409735E-03  0.3239903E+02 -0.1570794E+01
  0.1105051E+01  0.1622188E+02 -0.1570791E+01  0.6797158E+03 -0.5333207E-03  0.4834435E+02 -0.1570790E+01
  0.1306061E+01  0.2259569E+02 -0.1570780E+01  0.6725879E+03 -0.1029843E-02  0.6733956E+02 -0.1570780E+01
  0.1507071E+01  0.2995755E+02 -0.1570757E+01  0.6643008E+03 -0.1803576E-02  0.8927921E+02 -0.1570757E+01
  0.1708081E+01  0.3839441E+02 -0.1570714E+01  0.6548922E+03 -0.2934506E-02  0.1144226E+03 -0.1570714E+01
  0.1909091E+01  0.4769960E+02 -0.1570637E+01  0.6444060E+03 -0.4507597E-02  0.1421538E+03 -0.1570637E+01
  0.2110101E+01  0.5808343E+02 -0.1570509E+01  0.6329003E+03 -0.6610538E-02  0.1730994E+03 -0.1570509E+01
  0.2311111E+01  0.6925137E+02 -0.1570309E+01  0.6204546E+03 -0.9331639E-02  0.2063819E+03 -0.1570309E+01
  0.2512121E+01  0.8141651E+02 -0.1570005E+01  0.6071357E+03 -0.1275807E-01  0.2426364E+03 -0.1570005E+01
  0.2713131E+01  0.9449426E+02 -0.1569563E+01  0.5930350E+03 -0.1697315E-01  0.2816097E+03 -0.1569563E+01
  0.2914141E+01  0.1082121E+03 -0.1568939E+01  0.5782462E+03 -0.2205655E-01  0.3224909E+03 -0.1568939E+01
  0.3115151E+01  0.1228731E+03 -0.1568082E+01  0.5628562E+03 -0.2808246E-01  0.3661835E+03 -0.1568082E+01
  0.3316161E+01  0.1384097E+03 -0.1566933E+01  0.5469708E+03 -0.3511560E-01  0.4124840E+03 -0.1566933E+01
  0.3517171E+01  0.1545443E+03 -0.1565425E+01  0.5306940E+03 -0.4321567E-01  0.4605683E+03 -0.1565424E+01
  0.3718182E+01  0.1711803E+03 -0.1563483E+01  0.5140784E+03 -0.5243636E-01  0.5101457E+03 -0.1563483E+01
  0.3919192E+01  0.1886760E+03 -0.1561032E+01  0.4972681E+03 -0.6282575E-01  0.5622858E+03 -0.1561032E+01
  0.4120202E+01  0.2068518E+03 -0.1557986E+01  0.4803191E+03 -0.7441485E-01  0.6164514E+03 -0.1557986E+01
  0.4321212E+01  0.2254713E+03 -0.1554254E+01  0.4633018E+03 -0.8723105E-01  0.6719393E+03 -0.1554254E+01
  0.4522222E+01  0.2442831E+03 -0.1549742E+01  0.4463195E+03 -0.1013084E+00  0.7280016E+03 -0.1549742E+01
  0.4723232E+01  0.2633833E+03 -0.1544380E+01  0.4294115E+03 -0.1166742E+00  0.7849212E+03 -0.1544380E+01
  0.4924242E+01  0.2829725E+03 -0.1538112E+01  0.4126282E+03 -0.1333365E+00  0.8432991E+03 -0.1538111E+01
  0.5125252E+01  0.3027411E+03 -0.1530862E+01  0.3960705E+03 -0.1513023E+00  0.9022122E+03 -0.1530862E+01
  0.5326262E+01  0.3223859E+03 -0.1522573E+01  0.3797739E+03 -0.1705765E+00  0.9607549E+03 -0.1522573E+01
  0.5527273E+01  0.3416390E+03 -0.1513207E+01  0.3637256E+03 -0.1911650E+00  0.1018131E+04 -0.1513207E+01
  0.5728283E+01  0.3602133E+03 -0.1502757E+01  0.3479821E+03 -0.2130910E+00  0.1073484E+04 -0.1502757E+01
  0.5929293E+01  0.3781078E+03 -0.1491350E+01  0.3325991E+03 -0.2363760E+00  0.1126809E+04 -0.1491350E+01
  0.6130303E+01  0.3952503E+03 -0.1479120E+01  0.3176075E+03 -0.2610111E+00  0.1177895E+04 -0.1479120E+01
  0.6331313E+01  0.4112486E+03 -0.1466175E+01  0.3029915E+03 -0.2869911E+00  0.1225571E+04 -0.1466175E+01
  0.6532323E+01  0.4257797E+03 -0.1452683E+01  0.2887715E+03 -0.3143148E+00  0.1268873E+04 -0.1452683E+01
  0.6733334E+01  0.4385473E+03 -0.1438909E+01  0.2749896E+03 -0.3430000E+00  0.1306922E+04 -0.1438909E+01
  0.6934343E+01  0.4494565E+03 -0.1425271E+01  0.2616573E+03 -0.3730420E+00  0.1339433E+04 -0.1425272E+01
  0.7135354E+01  0.4583457E+03 -0.1412084E+01  0.2487620E+03 -0.4044353E+00  0.1365919E+04 -0.1412084E+01
  0.7336363E+01  0.4649804E+03 -0.1399684E+01  0.2362868E+03 -0.4372126E+00  0.1385690E+04 -0.1399684E+01
  0.7537374E+01  0.4693393E+03 -0.1388483E+01  0.2242417E+03 -0.4713751E+00  0.1398679E+04 -0.1388483E+01
  0.7738384E+01  0.4714651E+03 -0.1378951E+01  0.2126585E+03 -0.5069008E+00  0.1405013E+04 -0.1378952E+01
  0.7939394E+01  0.4713544E+03 -0.1371427E+01  0.2015273E+03 -0.5437834E+00  0.1404679E+04 -0.1371426E+01
  0.8140405E+01  0.4691310E+03 -0.1366220E+01  0.1908340E+03 -0.5820534E+00  0.1398051E+04 -0.1366219E+01
  0.8341414E+01  0.4650003E+03 -0.1363692E+01  0.1805564E+03 -0.6217425E+00  0.1385742E+04 -0.1363692E+01
  0.8542424E+01  0.4591588E+03 -0.1364087E+01  0.1706870E+03 -0.6628807E+00  0.1368332E+04 -0.1364087E+01
  0.8743435E+01  0.4518019E+03 -0.1367588E+01  0.1612423E+03 -0.7054319E+00  0.1346407E+04 -0.1367588E+01
  0.8944445E+01  0.4431820E+03 -0.1374340E+01  0.1522124E+03 -0.7494160E+00  0.1320717E+04 -0.1374340E+01
  0.9145455E+01  0.4335202E+03 -0.1384444E+01  0.1435824E+03 -0.7947969E+00  0.1291922E+04 -0.1384444E+01
  0.9346465E+01  0.4230216E+03 -0.1397954E+01  0.1353415E+03 -0.8416288E+00  0.1260636E+04 -0.1397954E+01
  0.9547475E+01  0.4119100E+03 -0.1414864E+01  0.1274771E+03 -0.8899459E+00  0.1227519E+04 -0.1414864E+01
  0.9748485E+01  0.4003634E+03 -0.1435146E+01  0.1199614E+03 -0.9398367E+00  0.1193110E+04 -0.1435146E+01
  0.9949495E+01  0.3885253E+03 -0.1458768E+01  0.1128006E+03 -0.9913049E+00  0.1157829E+04 -0.1458767E+01
  0.1015051E+02  0.3765500E+03 -0.1485633E+01  0.1059793E+03 -0.1044356E+01  0.1122138E+04 -0.1485632E+01
  0.1035151E+02  0.3645325E+03 -0.1515669E+01  0.9949107E+02 -0.1098947E+01  0.1086326E+04 -0.1515669E+01
  0.1055252E+02  0.3525620E+03 -0.1548794E+01  0.9332914E+02 -0.1155151E+01  0.1050654E+04 -0.1548794E+01
  0.1075354E+02  0.3407290E+03 -0.1584888E+01  0.8745258E+02 -0.1213095E+01  0.1015389E+04 -0.1584888E+01
  0.1095455E+02  0.3290874E+03 -0.1623859E+01  0.8186024E+02 -0.1272787E+01  0.9806961E+03 -0.1623859E+01
  0.1115556E+02  0.3176801E+03 -0.1665610E+01  0.7651977E+02 -0.1334482E+01  0.9467042E+03 -0.1665610E+01
  0.1135657E+02  0.3065574E+03 -0.1710044E+01  0.7143282E+02 -0.1398362E+01  0.9135541E+03 -0.1710044E+01
  0.1155758E+02  0.2957241E+03 -0.1757051E+01  0.6655682E+02 -0.1464237E+01  0.8812711E+03 -0.1757050E+01
  0.1175859E+02  0.2852031E+03 -0.1806565E+01  0.6182463E+02 -0.1533091E+01  0.8499176E+03 -0.1806564E+01
  0.1195960E+02  0.2750003E+03 -0.1858489E+01  0.5717184E+02 -0.1604902E+01  0.8195127E+03 -0.1858488E+01
  0.1216061E+02  0.2651347E+03 -0.1912762E+01  0.5238938E+02 -0.1682523E+01  0.7901093E+03 -0.1912763E+01
  0.1236162E+02  0.2556202E+03 -0.1969269E+01  0.4702961E+02 -0.1771200E+01  0.7617556E+03 -0.1969269E+01
  0.1256263E+02  0.2464147E+03 -0.2028002E+01  0.3825185E+02 -0.1902498E+01  0.7343243E+03 -0.2028002E+01
  0.1276364E+02  0.2375382E+03 -0.2088875E+01  0.1116337E+03  0.5895354E-01  0.7078694E+03 -0.2088876E+01
  0.1296465E+02  0.2290039E+03 -0.2151807E+01  0.5351632E+02 -0.1825235E+01  0.6824390E+03 -0.2151805E+01
  0.1316566E+02  0.2207792E+03 -0.2216802E+01  0.4535077E+02 -0.1954289E+01  0.6579278E+03 -0.2216801E+01
  0.1336667E+02  0.2128485E+03 -0.2283798E+01  0.4093330E+02 -0.2050230E+01  0.6342932E+03 -0.2283797E+01
  0.1356768E+02  0.2052083E+03 -0.2352734E+01  0.3755072E+02 -0.2137576E+01  0.6115255E+03 -0.2352733E+01
  0.1376869E+02  0.1978702E+03 -0.2423623E+01  0.3467900E+02 -0.2223199E+01  0.5896590E+03 -0.2423621E+01
  0.1396970E+02  0.1908239E+03 -0.2496479E+01  0.3216257E+02 -0.2306634E+01  0.5686598E+03 -0.2496476E+01
  0.1417071E+02  0.1841234E+03 -0.2571023E+01  0.2980290E+02 -0.2392284E+01  0.5486908E+03 -0.2571023E+01
  0.1437172E+02  0.1776683E+03 -0.2647582E+01  0.2770005E+02 -0.2476006E+01  0.5294545E+03 -0.2647581E+01
  0.1457273E+02  0.1714415E+03 -0.2726019E+01  0.2573205E+02 -0.2561340E+01  0.5108981E+03 -0.2726018E+01
  0.1477374E+02  0.1654632E+03 -0.2806354E+01  0.2391068E+02 -0.2646224E+01  0.4930825E+03 -0.2806352E+01
  0.1497475E+02  0.1598342E+03 -0.2888429E+01  0.2220229E+02 -0.2731988E+01  0.4763082E+03 -0.2888429E+01
  0.1517576E+02  0.1544474E+03 -0.2972547E+01  0.2060499E+02 -0.2817570E+01  0.4602547E+03 -0.2972547E+01
  0.1537677E+02  0.1492810E+03 -0.3059321E+01  0.1909426E+02 -0.2903641E+01  0.4448582E+03 -0.3059321E+01
  0.1557778E+02  0.1444759E+03  0.3133539E+01  0.1766573E+02 -0.2989774E+01  0.4305387E+03  0.3133538E+01
  0.1577879E+02  0.1405716E+03  0.3029588E+01  0.1630566E+02 -0.3076771E+01  0.4189017E+03  0.3029588E+01
  0.1597980E+02  0.1299511E+03  0.3030192E+01  0.1501213E+02  0.3118570E+01  0.3872661E+03  0.3030192E+01
  0.1618081E+02  0.1288345E+03  0.2889781E+01  0.1377891E+02  0.3029659E+01  0.3839309E+03  0.2889781E+01
  0.1638182E+02  0.1247150E+03  0.2790254E+01  0.1259880E+02  0.2940310E+01  0.3716535E+03  0.2790254E+01
  0.1658283E+02  0.1208771E+03  0.2693969E+01  0.1148169E+02  0.2848482E+01  0.3602157E+03  0.2693968E+01
  0.1678384E+02  0.1171110E+03  0.2597896E+01  0.1040678E+02  0.2756342E+01  0.3489930E+03  0.2597896E+01
  0.1698485E+02  0.1134435E+03  0.2500620E+01  0.9384147E+01  0.2661219E+01  0.3380631E+03  0.2500621E+01
  0.1718586E+02  0.1098809E+03  0.2402369E+01  0.8421988E+01  0.2562523E+01  0.3274465E+03  0.2402369E+01
  0.1738687E+02  0.1064056E+03  0.2302723E+01  0.7492250E+01  0.2460821E+01  0.3170897E+03  0.2302722E+01
  0.1758788E+02  0.1031033E+03  0.2202400E+01  0.6642815E+01  0.2352042E+01  0.3072486E+03  0.2202401E+01
  0.1778889E+02  0.9989315E+02  0.2100872E+01  0.5813681E+01  0.2239802E+01  0.2976828E+03  0.2100872E+01
  0.1798990E+02  0.9678741E+02  0.1998166E+01  0.5073321E+01  0.2113061E+01  0.2884275E+03  0.1998165E+01
  0.1819091E+02  0.9376974E+02  0.1894318E+01  0.4326745E+01  0.1981417E+01  0.2794347E+03  0.1894317E+01
  0.1839192E+02  0.9083030E+02  0.1789216E+01  0.3519439E+01  0.1843234E+01  0.2706748E+03  0.1789216E+01
  0.1859293E+02  0.8797953E+02  0.1682903E+01  0.2567707E+01  0.1686409E+01  0.2621788E+03  0.1682904E+01
  0.1879394E+02  0.8520309E+02  0.1575276E+01  0.1096353E+01  0.1295410E+01  0.2539060E+03  0.1575276E+01
  0.1899495E+02  0.8250422E+02  0.1466377E+01  0.7481196E+01 -0.1262866E+01  0.2458631E+03  0.1466377E+01
  0.1919596E+02  0.7988567E+02  0.1355999E+01  0.7792193E+01  0.1305838E+01  0.2380595E+03  0.1355999E+01
  0.1939697E+02  0.7734044E+02  0.1244191E+01  0.4707248E+01  0.1194376E+01  0.2304750E+03  0.1244191E+01
  0.1959798E+02  0.7486172E+02  0.1131017E+01  0.3592577E+01  0.1050930E+01  0.2230883E+03  0.1131018E+01
  0.1979899E+02  0.7247169E+02  0.1016613E+01  0.2935243E+01  0.9077360E+00  0.2159658E+03  0.1016613E+01
  0.2000000E+02  0.7015543E+02  0.9009619E+00  0.2458287E+01  0.7512755E+00  0.2090635E+03  0.9009625E+00
