VARIABLES="w (rad/s)"
"abs(F   1   1)" "angle(F   1   1)"
"abs(F   1   2)" "angle(F   1   2)"
"abs(F   1   3)" "angle(F   1   3)"
Zone t="FKforce - beta =   0.000",I=   100,F=POINT
  0.1000000E+00  0.8648596E-01 -0.1570788E+01  0.6975627E+03  0.2868399E-12  0.2577452E+00 -0.1570792E+01
  0.3010101E+00  0.7832027E+00 -0.1570785E+01  0.6968647E+03  0.8394557E-11  0.2334104E+01 -0.1570795E+01
  0.5020202E+00  0.2176156E+01 -0.1570792E+01  0.6954736E+03 -0.2109114E-10  0.6485390E+01 -0.1570798E+01
  0.7030303E+00  0.4260852E+01 -0.1570796E+01  0.6933826E+03  0.8764107E-10  0.1269819E+02 -0.1570794E+01
  0.9040404E+00  0.7030570E+01 -0.1570795E+01  0.6906065E+03 -0.5158233E-10  0.2095253E+02 -0.1570796E+01
  0.1105051E+01  0.1047638E+02 -0.1570797E+01  0.6871428E+03  0.1782292E-09  0.3122172E+02 -0.1570796E+01
  0.1306061E+01  0.1458707E+02 -0.1570797E+01  0.6830050E+03  0.3272559E-10  0.4347242E+02 -0.1570797E+01
  0.1507071E+01  0.1934930E+02 -0.1570796E+01  0.6781975E+03  0.9543963E-10  0.5766471E+02 -0.1570796E+01
  0.1708081E+01  0.2474746E+02 -0.1570796E+01  0.6727319E+03 -0.2339617E-09  0.7375234E+02 -0.1570796E+01
  0.1909091E+01  0.3076387E+02 -0.1570797E+01  0.6666204E+03 -0.6007448E-10  0.9168246E+02 -0.1570796E+01
  0.2110101E+01  0.3737863E+02 -0.1570796E+01  0.6598746E+03  0.1397249E-09  0.1113956E+03 -0.1570796E+01
  0.2311111E+01  0.4456977E+02 -0.1570796E+01  0.6525089E+03  0.2283672E-09  0.1328265E+03 -0.1570796E+01
  0.2512121E+01  0.5231302E+02 -0.1570796E+01  0.6445406E+03  0.7224701E-10  0.1559031E+03 -0.1570796E+01
  0.2713131E+01  0.6058260E+02 -0.1570796E+01  0.6359836E+03 -0.4012405E-09  0.1805475E+03 -0.1570796E+01
  0.2914141E+01  0.6935016E+02 -0.1570796E+01  0.6268579E+03 -0.3327967E-09  0.2066762E+03 -0.1570796E+01
  0.3115151E+01  0.7858543E+02 -0.1570796E+01  0.6171812E+03  0.3561225E-09  0.2341990E+03 -0.1570796E+01
  0.3316161E+01  0.8825685E+02 -0.1570796E+01  0.6069757E+03  0.7058081E-09  0.2630207E+03 -0.1570796E+01
  0.3517171E+01  0.9832970E+02 -0.1570796E+01  0.5962636E+03  0.9746449E-09  0.2930404E+03 -0.1570796E+01
  0.3718182E+01  0.1087692E+03 -0.1570796E+01  0.5850638E+03  0.8150173E-09  0.3241518E+03 -0.1570796E+01
  0.3919192E+01  0.1195373E+03 -0.1570796E+01  0.5734024E+03 -0.5522294E-09  0.3562423E+03 -0.1570796E+01
  0.4120202E+01  0.1305950E+03 -0.1570796E+01  0.5613044E+03  0.7566003E-09  0.3891955E+03 -0.1570796E+01
  0.4321212E+01  0.1419016E+03 -0.1570796E+01  0.5487946E+03 -0.4751692E-10  0.4228907E+03 -0.1570796E+01
  0.4522222E+01  0.1534150E+03 -0.1570796E+01  0.5358989E+03  0.2154959E-09  0.4572029E+03 -0.1570796E+01
  0.4723232E+01  0.1650918E+03 -0.1570796E+01  0.5226472E+03 -0.4205364E-09  0.4920000E+03 -0.1570796E+01
  0.4924242E+01  0.1768862E+03 -0.1570796E+01  0.5090644E+03  0.4317570E-09  0.5271486E+03 -0.1570796E+01
  0.5125252E+01  0.1887522E+03 -0.1570796E+01  0.4951800E+03 -0.1843160E-08  0.5625120E+03 -0.1570796E+01
  0.5326262E+01  0.2006432E+03 -0.1570796E+01  0.4810253E+03  0.1006782E-09  0.5979474E+03 -0.1570796E+01
  0.5527273E+01  0.2125105E+03 -0.1570796E+01  0.4666276E+03 -0.2618566E-08  0.6333134E+03 -0.1570796E+01
  0.5728283E+01  0.2243050E+03 -0.1570796E+01  0.4520186E+03 -0.3939415E-08  0.6684619E+03 -0.1570796E+01
  0.5929293E+01  0.2359768E+03 -0.1570796E+01  0.4372291E+03 -0.7497798E-09  0.7032441E+03 -0.1570796E+01
  0.6130303E+01  0.2474758E+03 -0.1570796E+01  0.4222908E+03  0.4499028E-08  0.7375123E+03 -0.1570796E+01
  0.6331313E+01  0.2587508E+03 -0.1570796E+01  0.4072329E+03  0.1610015E-08  0.7711128E+03 -0.1570796E+01
  0.6532323E+01  0.2697517E+03 -0.1570796E+01  0.3920891E+03 -0.2090249E-09  0.8038956E+03 -0.1570796E+01
  0.6733334E+01  0.2804266E+03 -0.1570796E+01  0.3768889E+03 -0.7116711E-09  0.8357083E+03 -0.1570796E+01
  0.6934343E+01  0.2907238E+03 -0.1570796E+01  0.3616650E+03  0.4490970E-08  0.8663965E+03 -0.1570796E+01
  0.7135354E+01  0.3005955E+03 -0.1570796E+01  0.3464484E+03 -0.3010784E-09  0.8958114E+03 -0.1570796E+01
  0.7336363E+01  0.3099892E+03 -0.1570796E+01  0.3312698E+03  0.3058773E-08  0.9238057E+03 -0.1570796E+01
  0.7537374E+01  0.3188571E+03 -0.1570796E+01  0.3161616E+03 -0.3299203E-09  0.9502320E+03 -0.1570796E+01
  0.7738384E+01  0.3271502E+03 -0.1570796E+01  0.3011527E+03  0.5912910E-08  0.9749468E+03 -0.1570796E+01
  0.7939394E+01  0.3348228E+03 -0.1570796E+01  0.2862731E+03 -0.6246272E-08  0.9978077E+03 -0.1570796E+01
  0.8140405E+01  0.3418275E+03 -0.1570796E+01  0.2715528E+03 -0.6667179E-08  0.1018682E+04 -0.1570796E+01
  0.8341414E+01  0.3481208E+03 -0.1570796E+01  0.2570200E+03  0.4754087E-08  0.1037439E+04 -0.1570796E+01
  0.8542424E+01  0.3536632E+03 -0.1570796E+01  0.2427026E+03  0.7490408E-08  0.1053953E+04 -0.1570796E+01
  0.8743435E+01  0.3584130E+03 -0.1570796E+01  0.2286275E+03  0.7821193E-09  0.1068108E+04 -0.1570796E+01
  0.8944445E+01  0.3623347E+03 -0.1570796E+01  0.2148206E+03  0.4335351E-08  0.1079793E+04 -0.1570796E+01
  0.9145455E+01  0.3653930E+03 -0.1570796E+01  0.2013066E+03  0.9400820E-08  0.1088906E+04 -0.1570796E+01
  0.9346465E+01  0.3675565E+03 -0.1570796E+01  0.1881096E+03 -0.9981131E-08  0.1095354E+04 -0.1570796E+01
  0.9547475E+01  0.3687991E+03 -0.1570796E+01  0.1752518E+03  0.1003321E-07  0.1099054E+04 -0.1570796E+01
  0.9748485E+01  0.3690952E+03 -0.1570796E+01  0.1627540E+03  0.5127154E-08  0.1099937E+04 -0.1570796E+01
  0.9949495E+01  0.3684257E+03 -0.1570796E+01  0.1506360E+03 -0.2468096E-07  0.1097940E+04 -0.1570796E+01
  0.1015051E+02  0.3667740E+03 -0.1570796E+01  0.1389160E+03  0.6543313E-08  0.1093014E+04 -0.1570796E+01
  0.1035151E+02  0.3641277E+03 -0.1570796E+01  0.1276106E+03 -0.9195680E-08  0.1085129E+04 -0.1570796E+01
  0.1055252E+02  0.3604805E+03 -0.1570796E+01  0.1167345E+03 -0.7978127E-08  0.1074261E+04 -0.1570796E+01
  0.1075354E+02  0.3558313E+03 -0.1570796E+01  0.1063010E+03 -0.1138954E-07  0.1060404E+04 -0.1570796E+01
  0.1095455E+02  0.3501814E+03 -0.1570796E+01  0.9632126E+02 -0.3867568E-09  0.1043567E+04 -0.1570796E+01
  0.1115556E+02  0.3435395E+03 -0.1570796E+01  0.8680513E+02 -0.6437333E-08  0.1023776E+04 -0.1570796E+01
  0.1135657E+02  0.3359211E+03 -0.1570796E+01  0.7776005E+02 -0.1671972E-07  0.1001069E+04 -0.1570796E+01
  0.1155758E+02  0.3273430E+03 -0.1570796E+01  0.6919213E+02 -0.2347415E-07  0.9755064E+03 -0.1570796E+01
  0.1175859E+02  0.3178317E+03 -0.1570796E+01  0.6110505E+02  0.1170535E-07  0.9471619E+03 -0.1570796E+01
  0.1195960E+02  0.3074185E+03 -0.1570796E+01  0.5350087E+02  0.2715588E-08  0.9161298E+03 -0.1570796E+01
  0.1216061E+02  0.2961402E+03 -0.1570796E+01  0.4637944E+02 -0.2088373E-08  0.8825164E+03 -0.1570796E+01
  0.1236162E+02  0.2840379E+03 -0.1570796E+01  0.3973911E+02 -0.2390464E-07  0.8464514E+03 -0.1570796E+01
  0.1256263E+02  0.2711617E+03 -0.1570796E+01  0.3357599E+02 -0.1719741E-07  0.8080813E+03 -0.1570796E+01
  0.1276364E+02  0.2575667E+03 -0.1570796E+01  0.2788439E+02 -0.5049993E-07  0.7675648E+03 -0.1570796E+01
  0.1296465E+02  0.2433111E+03 -0.1570796E+01  0.2265678E+02  0.6050759E-07  0.7250847E+03 -0.1570796E+01
  0.1316566E+02  0.2284619E+03 -0.1570796E+01  0.1788392E+02 -0.2697536E-07  0.6808324E+03 -0.1570796E+01
  0.1336667E+02  0.2130888E+03 -0.1570796E+01  0.1355475E+02 -0.4259910E-08  0.6350190E+03 -0.1570796E+01
  0.1356768E+02  0.1972684E+03 -0.1570796E+01  0.9656672E+01  0.4937904E-07  0.5878740E+03 -0.1570796E+01
  0.1376869E+02  0.1810805E+03 -0.1570796E+01  0.6175432E+01 -0.2235018E-06  0.5396343E+03 -0.1570796E+01
  0.1396970E+02  0.1646101E+03 -0.1570796E+01  0.3095363E+01  0.1504383E-07  0.4905515E+03 -0.1570796E+01
  0.1417071E+02  0.1479453E+03 -0.1570796E+01  0.3994637E+00  0.6621269E-06  0.4408878E+03 -0.1570796E+01
  0.1437172E+02  0.1311776E+03 -0.1570796E+01  0.1930456E+01 -0.3141593E+01  0.3909200E+03 -0.1570796E+01
  0.1457273E+02  0.1144007E+03 -0.1570796E+01  0.3913740E+01 -0.3141593E+01  0.3409236E+03 -0.1570796E+01
  0.1477374E+02  0.9771149E+02 -0.1570796E+01  0.5570661E+01 -0.3141593E+01  0.2911897E+03 -0.1570796E+01
  0.1497475E+02  0.8120685E+02 -0.1570796E+01  0.6922338E+01  0.3141593E+01  0.2420048E+03 -0.1570796E+01
  0.1517576E+02  0.6498479E+02 -0.1570796E+01  0.7990426E+01  0.3141593E+01  0.1936624E+03 -0.1570796E+01
  0.1537677E+02  0.4914299E+02 -0.1570796E+01  0.8797141E+01 -0.3141593E+01  0.1464534E+03 -0.1570796E+01
  0.1557778E+02  0.3377788E+02 -0.1570796E+01  0.9365051E+01  0.3141593E+01  0.1006649E+03 -0.1570796E+01
  0.1577879E+02  0.1898426E+02 -0.1570796E+01  0.9716827E+01  0.3141593E+01  0.5657949E+02 -0.1570796E+01
  0.1597980E+02  0.4853501E+01 -0.1570796E+01  0.9875089E+01  0.3141593E+01  0.1446929E+02 -0.1570796E+01
  0.1618081E+02  0.8526378E+01  0.1570796E+01  0.9862314E+01 -0.3141593E+01  0.2540322E+02  0.1570796E+01
  0.1638182E+02  0.2107241E+02  0.1570796E+01  0.9700641E+01 -0.3141593E+01  0.6279076E+02  0.1570796E+01
  0.1658283E+02  0.3270717E+02  0.1570796E+01  0.9411586E+01 -0.3141593E+01  0.9746278E+02  0.1570796E+01
  0.1678384E+02  0.4336005E+02  0.1570796E+01  0.9016065E+01  0.3141593E+01  0.1292089E+03  0.1570796E+01
  0.1698485E+02  0.5296794E+02  0.1570796E+01  0.8534119E+01 -0.3141593E+01  0.1578405E+03  0.1570796E+01
  0.1718586E+02  0.6147601E+02  0.1570796E+01  0.7984805E+01  0.3141593E+01  0.1831949E+03  0.1570796E+01
  0.1738687E+02  0.6883874E+02  0.1570796E+01  0.7386018E+01 -0.3141593E+01  0.2051363E+03  0.1570796E+01
  0.1758788E+02  0.7502082E+02  0.1570796E+01  0.6754510E+01  0.3141593E+01  0.2235587E+03  0.1570796E+01
  0.1778889E+02  0.7999704E+02  0.1570796E+01  0.6105601E+01  0.3141593E+01  0.2383888E+03  0.1570796E+01
  0.1798990E+02  0.8375416E+02  0.1570796E+01  0.5453208E+01  0.3141593E+01  0.2495852E+03  0.1570796E+01
  0.1819091E+02  0.8629050E+02  0.1570796E+01  0.4809729E+01  0.3141593E+01  0.2571436E+03  0.1570796E+01
  0.1839192E+02  0.8761579E+02  0.1570796E+01  0.4186024E+01 -0.3141593E+01  0.2610929E+03  0.1570796E+01
  0.1859293E+02  0.8775317E+02  0.1570796E+01  0.3591318E+01 -0.3141593E+01  0.2615018E+03  0.1570796E+01
  0.1879394E+02  0.8673728E+02  0.1570796E+01  0.3033267E+01 -0.3141593E+01  0.2584757E+03  0.1570796E+01
  0.1899495E+02  0.8461585E+02  0.1570796E+01  0.2517900E+01 -0.3141593E+01  0.2521539E+03  0.1570796E+01
  0.1919596E+02  0.8144823E+02  0.1570796E+01  0.2049681E+01  0.3141593E+01  0.2427143E+03  0.1570796E+01
  0.1939697E+02  0.7730538E+02  0.1570796E+01  0.1631553E+01  0.3141593E+01  0.2303690E+03  0.1570796E+01
  0.1959798E+02  0.7226968E+02  0.1570796E+01  0.1265008E+01 -0.3141593E+01  0.2153627E+03  0.1570796E+01
  0.1979899E+02  0.6643365E+02  0.1570796E+01  0.9501718E+00  0.3141592E+01  0.1979713E+03  0.1570796E+01
  0.2000000E+02  0.5989928E+02  0.1570796E+01  0.6859289E+00  0.3141593E+01  0.1784993E+03  0.1570796E+01
