 VARIABLES="Time (s)"
"AddedMass    1" "IRF    1"
"AddedMass    2" "IRF    2"
"AddedMass    3" "IRF    3"
Zone t="DoF    1",I=   800,F=POINT
  0.0000000E+00  0.2697586E+01  0.2239203E+03 -0.1422932E-06 -0.1793639E-05  0.8039526E+01  0.6672930E+03
  0.1000000E-01  0.2697586E+01  0.2221665E+03 -0.1422932E-06 -0.1811080E-05  0.8039526E+01  0.6620668E+03
  0.2000000E-01  0.2697586E+01  0.2169419E+03 -0.1422932E-06 -0.1862689E-05  0.8039526E+01  0.6464973E+03
  0.3000000E-01  0.2697586E+01  0.2083550E+03 -0.1422932E-06 -0.1946341E-05  0.8039526E+01  0.6209080E+03
  0.4000000E-01  0.2697586E+01  0.1965839E+03 -0.1422932E-06 -0.2058589E-05  0.8039526E+01  0.5858295E+03
  0.5000000E-01  0.2697586E+01  0.1818715E+03 -0.1422932E-06 -0.2194816E-05  0.8039526E+01  0.5419865E+03
  0.6000000E-01  0.2697586E+01  0.1645196E+03 -0.1422932E-06 -0.2349396E-05  0.8039526E+01  0.4902773E+03
  0.7000000E-01  0.2697586E+01  0.1448813E+03 -0.1422932E-06 -0.2515949E-05  0.8039526E+01  0.4317545E+03
  0.8000000E-01  0.2697586E+01  0.1233522E+03 -0.1422932E-06 -0.2687586E-05  0.8039526E+01  0.3675970E+03
  0.9000000E-01  0.2697586E+01  0.1003608E+03 -0.1422932E-06 -0.2857196E-05  0.8039526E+01  0.2990821E+03
  0.9999999E-01  0.2697586E+01  0.7635793E+02 -0.1422932E-06 -0.3017728E-05  0.8039526E+01  0.2275525E+03
  0.1100000E+00  0.2697586E+01  0.5180584E+02 -0.1422932E-06 -0.3162495E-05  0.8039526E+01  0.1543865E+03
  0.1200000E+00  0.2697586E+01  0.2716755E+02 -0.1422932E-06 -0.3285428E-05  0.8039526E+01  0.8096339E+02
  0.1300000E+00  0.2697586E+01  0.2895622E+01 -0.1422932E-06 -0.3381349E-05  0.8039526E+01  0.8632167E+01
  0.1400000E+00  0.2697586E+01 -0.2057785E+02 -0.1422932E-06 -0.3446174E-05  0.8039526E+01 -0.6131973E+02
  0.1500000E+00  0.2697586E+01 -0.4285096E+02 -0.1422932E-06 -0.3477084E-05  0.8039526E+01 -0.1276945E+03
  0.1600000E+00  0.2697586E+01 -0.6356062E+02 -0.1422932E-06 -0.3472665E-05  0.8039526E+01 -0.1894102E+03
  0.1700000E+00  0.2697586E+01 -0.8238982E+02 -0.1422932E-06 -0.3432948E-05  0.8039526E+01 -0.2455222E+03
  0.1800000E+00  0.2697586E+01 -0.9907378E+02 -0.1422932E-06 -0.3359440E-05  0.8039526E+01 -0.2952412E+03
  0.1900000E+00  0.2697586E+01 -0.1134044E+03 -0.1422932E-06 -0.3255059E-05  0.8039526E+01 -0.3379472E+03
  0.2000000E+00  0.2697586E+01 -0.1252329E+03 -0.1422932E-06 -0.3124035E-05  0.8039526E+01 -0.3731971E+03
  0.2100000E+00  0.2697586E+01 -0.1344716E+03 -0.1422932E-06 -0.2971733E-05  0.8039526E+01 -0.4007293E+03
  0.2200000E+00  0.2697586E+01 -0.1410932E+03 -0.1422932E-06 -0.2804456E-05  0.8039526E+01 -0.4204621E+03
  0.2300000E+00  0.2697586E+01 -0.1451285E+03 -0.1422932E-06 -0.2629187E-05  0.8039526E+01 -0.4324881E+03
  0.2400000E+00  0.2697586E+01 -0.1466638E+03 -0.1422932E-06 -0.2453307E-05  0.8039526E+01 -0.4370637E+03
  0.2500000E+00  0.2697586E+01 -0.1458352E+03 -0.1422932E-06 -0.2284295E-05  0.8039526E+01 -0.4345949E+03
  0.2600000E+00  0.2697586E+01 -0.1428235E+03 -0.1422932E-06 -0.2129421E-05  0.8039526E+01 -0.4256202E+03
  0.2700000E+00  0.2697586E+01 -0.1378466E+03 -0.1422932E-06 -0.1995446E-05  0.8039526E+01 -0.4107897E+03
  0.2800000E+00  0.2697586E+01 -0.1311527E+03 -0.1422932E-06 -0.1888323E-05  0.8039526E+01 -0.3908420E+03
  0.2900000E+00  0.2697586E+01 -0.1230115E+03 -0.1422932E-06 -0.1812946E-05  0.8039526E+01 -0.3665814E+03
  0.3000000E+00  0.2697586E+01 -0.1137064E+03 -0.1422932E-06 -0.1772916E-05  0.8039526E+01 -0.3388525E+03
  0.3100000E+00  0.2697586E+01 -0.1035262E+03 -0.1422932E-06 -0.1770381E-05  0.8039526E+01 -0.3085154E+03
  0.3200000E+00  0.2697586E+01 -0.9275693E+02 -0.1422932E-06 -0.1805889E-05  0.8039526E+01 -0.2764229E+03
  0.3300000E+00  0.2697586E+01 -0.8167453E+02 -0.1422932E-06 -0.1878347E-05  0.8039526E+01 -0.2433973E+03
  0.3400000E+00  0.2697586E+01 -0.7053813E+02 -0.1422932E-06 -0.1985009E-05  0.8039526E+01 -0.2102106E+03
  0.3500000E+00  0.2697586E+01 -0.5958407E+02 -0.1422932E-06 -0.2121533E-05  0.8039526E+01 -0.1775675E+03
  0.3600000E+00  0.2697586E+01 -0.4902100E+02 -0.1422932E-06 -0.2282105E-05  0.8039526E+01 -0.1460891E+03
  0.3700000E+00  0.2697586E+01 -0.3902599E+02 -0.1422932E-06 -0.2459620E-05  0.8039526E+01 -0.1163038E+03
  0.3800000E+00  0.2697586E+01 -0.2974229E+02 -0.1422932E-06 -0.2645898E-05  0.8039526E+01 -0.8863804E+02
  0.3900000E+00  0.2697586E+01 -0.2127751E+02 -0.1422932E-06 -0.2831968E-05  0.8039526E+01 -0.6341262E+02
  0.4000000E+00  0.2697586E+01 -0.1370366E+02 -0.1422932E-06 -0.3008354E-05  0.8039526E+01 -0.4084227E+02
  0.4100000E+00  0.2697586E+01 -0.7058009E+01 -0.1422932E-06 -0.3165408E-05  0.8039526E+01 -0.2103778E+02
  0.4200000E+00  0.2697586E+01 -0.1345057E+01 -0.1422932E-06 -0.3293633E-05  0.8039526E+01 -0.4012769E+01
  0.4300000E+00  0.2697586E+01  0.3460581E+01 -0.1422932E-06 -0.3384017E-05  0.8039526E+01  0.1030849E+02
  0.4400000E+00  0.2697586E+01  0.7410519E+01 -0.1422932E-06 -0.3428334E-05  0.8039526E+01  0.2207967E+02
  0.4500000E+00  0.2697586E+01  0.1057815E+02 -0.1422932E-06 -0.3419439E-05  0.8039526E+01  0.3151967E+02
  0.4600000E+00  0.2697586E+01  0.1305408E+02 -0.1422932E-06 -0.3351510E-05  0.8039526E+01  0.3889833E+02
  0.4700000E+00  0.2697586E+01  0.1494102E+02 -0.1422932E-06 -0.3220245E-05  0.8039526E+01  0.4452187E+02
  0.4800000E+00  0.2697586E+01  0.1634873E+02 -0.1422932E-06 -0.3023016E-05  0.8039526E+01  0.4871726E+02
  0.4900000E+00  0.2697586E+01  0.1738893E+02 -0.1422932E-06 -0.2758945E-05  0.8039526E+01  0.5181749E+02
  0.5000000E+00  0.2697586E+01  0.1817083E+02 -0.1422932E-06 -0.2428933E-05  0.8039526E+01  0.5414791E+02
  0.5100000E+00  0.2697586E+01  0.1879659E+02 -0.1422932E-06 -0.2035629E-05  0.8039526E+01  0.5601307E+02
  0.5200000E+00  0.2697586E+01  0.1935779E+02 -0.1422932E-06 -0.1583313E-05  0.8039526E+01  0.5768583E+02
  0.5300000E+00  0.2697586E+01  0.1993228E+02 -0.1422932E-06 -0.1077758E-05  0.8039526E+01  0.5939812E+02
  0.5400000E+00  0.2697586E+01  0.2058188E+02 -0.1422932E-06 -0.5260008E-06  0.8039526E+01  0.6133436E+02
  0.5500000E+00  0.2697586E+01  0.2135094E+02 -0.1422932E-06  0.6388439E-07  0.8039526E+01  0.6362646E+02
  0.5600000E+00  0.2697586E+01  0.2226545E+02 -0.1422932E-06  0.6830780E-06  0.8039526E+01  0.6635198E+02
  0.5700000E+00  0.2697586E+01  0.2333326E+02 -0.1422932E-06  0.1322326E-05  0.8039526E+01  0.6953436E+02
  0.5800000E+00  0.2697586E+01  0.2454483E+02 -0.1422932E-06  0.1972241E-05  0.8039526E+01  0.7314514E+02
  0.5900000E+00  0.2697586E+01  0.2587482E+02 -0.1422932E-06  0.2623622E-05  0.8039526E+01  0.7710872E+02
  0.6000000E+00  0.2697586E+01  0.2728407E+02 -0.1422932E-06  0.3267732E-05  0.8039526E+01  0.8130849E+02
  0.6100000E+00  0.2697586E+01  0.2872230E+02 -0.1422932E-06  0.3896602E-05  0.8039526E+01  0.8559465E+02
  0.6200000E+00  0.2697586E+01  0.3013099E+02 -0.1422932E-06  0.4503205E-05  0.8039526E+01  0.8979273E+02
  0.6300000E+00  0.2697586E+01  0.3144664E+02 -0.1422932E-06  0.5081708E-05  0.8039526E+01  0.9371355E+02
  0.6400000E+00  0.2697586E+01  0.3260404E+02 -0.1422932E-06  0.5627565E-05  0.8039526E+01  0.9716276E+02
  0.6500000E+00  0.2697586E+01  0.3353946E+02 -0.1422932E-06  0.6137604E-05  0.8039526E+01  0.9995042E+02
  0.6600000E+00  0.2697586E+01  0.3419383E+02 -0.1422932E-06  0.6610055E-05  0.8039526E+01  0.1019005E+03
  0.6700000E+00  0.2697586E+01  0.3451543E+02 -0.1422932E-06  0.7044493E-05  0.8039526E+01  0.1028590E+03
  0.6800000E+00  0.2697586E+01  0.3446247E+02 -0.1422932E-06  0.7441736E-05  0.8039526E+01  0.1027012E+03
  0.6900000E+00  0.2697586E+01  0.3400485E+02 -0.1422932E-06  0.7803716E-05  0.8039526E+01  0.1013375E+03
  0.7000000E+00  0.2697586E+01  0.3312578E+02 -0.1422932E-06  0.8133261E-05  0.8039526E+01  0.9871786E+02
  0.7100000E+00  0.2697586E+01  0.3182244E+02 -0.1422932E-06  0.8433852E-05  0.8039526E+01  0.9483393E+02
  0.7200000E+00  0.2697586E+01  0.3010638E+02 -0.1422932E-06  0.8709395E-05  0.8039526E+01  0.8972003E+02
  0.7300000E+00  0.2697586E+01  0.2800308E+02 -0.1422932E-06  0.8963890E-05  0.8039526E+01  0.8345211E+02
  0.7400000E+00  0.2697586E+01  0.2555108E+02 -0.1422932E-06  0.9201202E-05  0.8039526E+01  0.7614509E+02
  0.7500000E+00  0.2697586E+01  0.2280069E+02 -0.1422932E-06  0.9424752E-05  0.8039526E+01  0.6794881E+02
  0.7600000E+00  0.2697586E+01  0.1981194E+02 -0.1422932E-06  0.9637281E-05  0.8039526E+01  0.5904220E+02
  0.7700000E+00  0.2697586E+01  0.1665252E+02 -0.1422932E-06  0.9840610E-05  0.8039526E+01  0.4962701E+02
  0.7800000E+00  0.2697586E+01  0.1339527E+02 -0.1422932E-06  0.1003550E-04  0.8039526E+01  0.3992028E+02
  0.7900000E+00  0.2697586E+01  0.1011558E+02 -0.1422932E-06  0.1022150E-04  0.8039526E+01  0.3014663E+02
  0.8000000E+00  0.2697586E+01  0.6888555E+01 -0.1422932E-06  0.1039687E-04  0.8039526E+01  0.2052991E+02
  0.8100000E+00  0.2697586E+01  0.3786518E+01 -0.1422932E-06  0.1055857E-04  0.8039526E+01  0.1128569E+02
  0.8200000E+00  0.2697586E+01  0.8765242E+00 -0.1422932E-06  0.1070235E-04  0.8039526E+01  0.2613694E+01
  0.8300000E+00  0.2697586E+01 -0.1782025E+01 -0.1422932E-06  0.1082283E-04  0.8039526E+01 -0.5308923E+01
  0.8400000E+00  0.2697586E+01 -0.4139243E+01 -0.1422932E-06  0.1091367E-04  0.8039526E+01 -0.1233364E+02
  0.8500000E+00  0.2697586E+01 -0.6156261E+01 -0.1422932E-06  0.1096784E-04  0.8039526E+01 -0.1834454E+02
  0.8600000E+00  0.2697586E+01 -0.7806349E+01 -0.1422932E-06  0.1097781E-04  0.8039526E+01 -0.2326201E+02
  0.8700000E+00  0.2697586E+01 -0.9075577E+01 -0.1422932E-06  0.1093595E-04  0.8039526E+01 -0.2704449E+02
  0.8800000E+00  0.2697586E+01 -0.9962823E+01 -0.1422932E-06  0.1083480E-04  0.8039526E+01 -0.2968866E+02
  0.8900000E+00  0.2697586E+01 -0.1047959E+02 -0.1422932E-06  0.1066739E-04  0.8039526E+01 -0.3122881E+02
  0.9000000E+00  0.2697586E+01 -0.1064906E+02 -0.1422932E-06  0.1042763E-04  0.8039526E+01 -0.3173395E+02
  0.9100000E+00  0.2697586E+01 -0.1050487E+02 -0.1422932E-06  0.1011057E-04  0.8039526E+01 -0.3130443E+02
  0.9200000E+00  0.2697586E+01 -0.1008956E+02 -0.1422932E-06  0.9712721E-05  0.8039526E+01 -0.3006701E+02
  0.9300000E+00  0.2697586E+01 -0.9452754E+01 -0.1422932E-06  0.9232278E-05  0.8039526E+01 -0.2816943E+02
  0.9400000E+00  0.2697586E+01 -0.8648859E+01 -0.1422932E-06  0.8669313E-05  0.8039526E+01 -0.2577392E+02
  0.9500000E+00  0.2697586E+01 -0.7734987E+01 -0.1422932E-06  0.8025896E-05  0.8039526E+01 -0.2305069E+02
  0.9600000E+00  0.2697586E+01 -0.6768669E+01 -0.1422932E-06  0.7306164E-05  0.8039526E+01 -0.2017113E+02
  0.9700000E+00  0.2697586E+01 -0.5805605E+01 -0.1422932E-06  0.6516284E-05  0.8039526E+01 -0.1730130E+02
  0.9800000E+00  0.2697586E+01 -0.4897576E+01 -0.1422932E-06  0.5664379E-05  0.8039526E+01 -0.1459542E+02
  0.9899999E+00  0.2697586E+01 -0.4090511E+01 -0.1422932E-06  0.4760362E-05  0.8039526E+01 -0.1219041E+02
  0.1000000E+01  0.2697586E+01 -0.3423050E+01 -0.1422932E-06  0.3815677E-05  0.8039526E+01 -0.1020141E+02
  0.1010000E+01  0.2697586E+01 -0.2925066E+01 -0.1422932E-06  0.2843063E-05  0.8039526E+01 -0.8717446E+01
  0.1020000E+01  0.2697586E+01 -0.2616910E+01 -0.1422932E-06  0.1856132E-05  0.8039526E+01 -0.7799155E+01
  0.1030000E+01  0.2697586E+01 -0.2508873E+01 -0.1422932E-06  0.8690363E-06  0.8039526E+01 -0.7477232E+01
  0.1040000E+01  0.2697586E+01 -0.2601115E+01 -0.1422932E-06 -0.1039714E-06  0.8039526E+01 -0.7752094E+01
  0.1050000E+01  0.2697586E+01 -0.2883964E+01 -0.1422932E-06 -0.1048957E-05  0.8039526E+01 -0.8594978E+01
  0.1060000E+01  0.2697586E+01 -0.3338660E+01 -0.1422932E-06 -0.1952732E-05  0.8039526E+01 -0.9949944E+01
  0.1070000E+01  0.2697586E+01 -0.3938391E+01 -0.1422932E-06 -0.2803270E-05  0.8039526E+01 -0.1173710E+02
  0.1080000E+01  0.2697586E+01 -0.4649590E+01 -0.1422932E-06 -0.3590068E-05  0.8039526E+01 -0.1385647E+02
  0.1090000E+01  0.2697586E+01 -0.5433671E+01 -0.1422932E-06 -0.4304487E-05  0.8039526E+01 -0.1619302E+02
  0.1100000E+01  0.2697586E+01 -0.6248634E+01 -0.1422932E-06 -0.4939985E-05  0.8039526E+01 -0.1862157E+02
  0.1110000E+01  0.2697586E+01 -0.7050992E+01 -0.1422932E-06 -0.5492359E-05  0.8039526E+01 -0.2101257E+02
  0.1120000E+01  0.2697586E+01 -0.7797683E+01 -0.1422932E-06 -0.5959842E-05  0.8039526E+01 -0.2323770E+02
  0.1130000E+01  0.2697586E+01 -0.8447839E+01 -0.1422932E-06 -0.6343136E-05  0.8039526E+01 -0.2517512E+02
  0.1140000E+01  0.2697586E+01 -0.8964503E+01 -0.1422932E-06 -0.6645360E-05  0.8039526E+01 -0.2671478E+02
  0.1150000E+01  0.2697586E+01 -0.9316227E+01 -0.1422932E-06 -0.6871914E-05  0.8039526E+01 -0.2776287E+02
  0.1160000E+01  0.2697586E+01 -0.9478184E+01 -0.1422932E-06 -0.7030269E-05  0.8039526E+01 -0.2824548E+02
  0.1170000E+01  0.2697586E+01 -0.9433262E+01 -0.1422932E-06 -0.7129662E-05  0.8039526E+01 -0.2811161E+02
  0.1180000E+01  0.2697586E+01 -0.9172684E+01 -0.1422932E-06 -0.7180757E-05  0.8039526E+01 -0.2733511E+02
  0.1190000E+01  0.2697586E+01 -0.8696356E+01 -0.1422932E-06 -0.7195237E-05  0.8039526E+01 -0.2591560E+02
  0.1200000E+01  0.2697586E+01 -0.8012695E+01 -0.1422932E-06 -0.7185336E-05  0.8039526E+01 -0.2387831E+02
  0.1210000E+01  0.2697586E+01 -0.7138383E+01 -0.1422932E-06 -0.7163415E-05  0.8039526E+01 -0.2127285E+02
  0.1220000E+01  0.2697586E+01 -0.6097563E+01 -0.1422932E-06 -0.7141442E-05  0.8039526E+01 -0.1817121E+02
  0.1230000E+01  0.2697586E+01 -0.4920856E+01 -0.1422932E-06 -0.7130596E-05  0.8039526E+01 -0.1466463E+02
  0.1240000E+01  0.2697586E+01 -0.3644173E+01 -0.1422932E-06 -0.7140784E-05  0.8039526E+01 -0.1086011E+02
  0.1250000E+01  0.2697586E+01 -0.2307104E+01 -0.1422932E-06 -0.7180294E-05  0.8039526E+01 -0.6875658E+01
  0.1260000E+01  0.2697586E+01 -0.9515117E+00 -0.1422932E-06 -0.7255463E-05  0.8039526E+01 -0.2835968E+01
  0.1270000E+01  0.2697586E+01  0.3801560E+00 -0.1422932E-06 -0.7370435E-05  0.8039526E+01  0.1132400E+01
  0.1280000E+01  0.2697586E+01  0.1646567E+01 -0.1422932E-06 -0.7526987E-05  0.8039526E+01  0.4906316E+01
  0.1290000E+01  0.2697586E+01  0.2809063E+01 -0.1422932E-06 -0.7724450E-05  0.8039526E+01  0.8370551E+01
  0.1300000E+01  0.2697586E+01  0.3833064E+01 -0.1422932E-06 -0.7959752E-05  0.8039526E+01  0.1142209E+02
  0.1310000E+01  0.2697586E+01  0.4689472E+01 -0.1422932E-06 -0.8227488E-05  0.8039526E+01  0.1397417E+02
  0.1320000E+01  0.2697586E+01  0.5355539E+01 -0.1422932E-06 -0.8520137E-05  0.8039526E+01  0.1595910E+02
  0.1330000E+01  0.2697586E+01  0.5815891E+01 -0.1422932E-06 -0.8828368E-05  0.8039526E+01  0.1733095E+02
  0.1340000E+01  0.2697586E+01  0.6062793E+01 -0.1422932E-06 -0.9141344E-05  0.8039526E+01  0.1806677E+02
  0.1350000E+01  0.2697586E+01  0.6096494E+01 -0.1422932E-06 -0.9447177E-05  0.8039526E+01  0.1816722E+02
  0.1360000E+01  0.2697586E+01  0.5925017E+01 -0.1422932E-06 -0.9733375E-05  0.8039526E+01  0.1765625E+02
  0.1370000E+01  0.2697586E+01  0.5563749E+01 -0.1422932E-06 -0.9987342E-05  0.8039526E+01  0.1657972E+02
  0.1380000E+01  0.2697586E+01  0.5034818E+01 -0.1422932E-06 -0.1019688E-04  0.8039526E+01  0.1500354E+02
  0.1390000E+01  0.2697586E+01  0.4365929E+01 -0.1422932E-06 -0.1035063E-04  0.8039526E+01  0.1301033E+02
  0.1400000E+01  0.2697586E+01  0.3589401E+01 -0.1422932E-06 -0.1043863E-04  0.8039526E+01  0.1069633E+02
  0.1410000E+01  0.2697586E+01  0.2740797E+01 -0.1422932E-06 -0.1045268E-04  0.8039526E+01  0.8167552E+01
  0.1420000E+01  0.2697586E+01  0.1857384E+01 -0.1422932E-06 -0.1038670E-04  0.8039526E+01  0.5535031E+01
  0.1430000E+01  0.2697586E+01  0.9768280E+00 -0.1422932E-06 -0.1023702E-04  0.8039526E+01  0.2911041E+01
  0.1440000E+01  0.2697586E+01  0.1355021E+00 -0.1422932E-06 -0.1000262E-04  0.8039526E+01  0.4039586E+00
  0.1450000E+01  0.2697586E+01 -0.6326611E+00 -0.1422932E-06 -0.9685185E-05  0.8039526E+01 -0.1885123E+01
  0.1460000E+01  0.2697586E+01 -0.1297669E+01 -0.1422932E-06 -0.9289100E-05  0.8039526E+01 -0.3866775E+01
  0.1470000E+01  0.2697586E+01 -0.1834389E+01 -0.1422932E-06 -0.8821423E-05  0.8039526E+01 -0.5466147E+01
  0.1480000E+01  0.2697586E+01 -0.2223629E+01 -0.1422932E-06 -0.8291596E-05  0.8039526E+01 -0.6626023E+01
  0.1490000E+01  0.2697586E+01 -0.2452647E+01 -0.1422932E-06 -0.7711237E-05  0.8039526E+01 -0.7308457E+01
  0.1500000E+01  0.2697586E+01 -0.2515577E+01 -0.1422932E-06 -0.7093691E-05  0.8039526E+01 -0.7495957E+01
  0.1510000E+01  0.2697586E+01 -0.2413552E+01 -0.1422932E-06 -0.6453614E-05  0.8039526E+01 -0.7191871E+01
  0.1520000E+01  0.2697586E+01 -0.2154551E+01 -0.1422932E-06 -0.5806472E-05  0.8039526E+01 -0.6420017E+01
  0.1530000E+01  0.2697586E+01 -0.1752921E+01 -0.1422932E-06 -0.5167986E-05  0.8039526E+01 -0.5223138E+01
  0.1540000E+01  0.2697586E+01 -0.1228704E+01 -0.1422932E-06 -0.4553552E-05  0.8039526E+01 -0.3660969E+01
  0.1550000E+01  0.2697586E+01 -0.6068218E+00 -0.1422932E-06 -0.3977707E-05  0.8039526E+01 -0.1807738E+01
  0.1560000E+01  0.2697586E+01  0.8420735E-01 -0.1422932E-06 -0.3453564E-05  0.8039526E+01  0.2515361E+00
  0.1570000E+01  0.2697586E+01  0.8131901E+00 -0.1422932E-06 -0.2992311E-05  0.8039526E+01  0.2423879E+01
  0.1580000E+01  0.2697586E+01  0.1547832E+01 -0.1422932E-06 -0.2602783E-05  0.8039526E+01  0.4613095E+01
  0.1590000E+01  0.2697586E+01  0.2255830E+01 -0.1422932E-06 -0.2291088E-05  0.8039526E+01  0.6722907E+01
  0.1600000E+01  0.2697586E+01  0.2906336E+01 -0.1422932E-06 -0.2060327E-05  0.8039526E+01  0.8661377E+01
  0.1610000E+01  0.2697586E+01  0.3471106E+01 -0.1422932E-06 -0.1910424E-05  0.8039526E+01  0.1034435E+02
  0.1620000E+01  0.2697586E+01  0.3925560E+01 -0.1422932E-06 -0.1838095E-05  0.8039526E+01  0.1169858E+02
  0.1630000E+01  0.2697586E+01  0.4249895E+01 -0.1422932E-06 -0.1836860E-05  0.8039526E+01  0.1266504E+02
  0.1640000E+01  0.2697586E+01  0.4429676E+01 -0.1422932E-06 -0.1897227E-05  0.8039526E+01  0.1320073E+02
  0.1650000E+01  0.2697586E+01  0.4456355E+01 -0.1422932E-06 -0.2006969E-05  0.8039526E+01  0.1328017E+02
  0.1660000E+01  0.2697586E+01  0.4327718E+01 -0.1422932E-06 -0.2151502E-05  0.8039526E+01  0.1289678E+02
  0.1670000E+01  0.2697586E+01  0.4047696E+01 -0.1422932E-06 -0.2314361E-05  0.8039526E+01  0.1206225E+02
  0.1680000E+01  0.2697586E+01  0.3626313E+01 -0.1422932E-06 -0.2477723E-05  0.8039526E+01  0.1080647E+02
  0.1690000E+01  0.2697586E+01  0.3079173E+01 -0.1422932E-06 -0.2623014E-05  0.8039526E+01  0.9175933E+01
  0.1700000E+01  0.2697586E+01  0.2426706E+01 -0.1422932E-06 -0.2731555E-05  0.8039526E+01  0.7231521E+01
  0.1710000E+01  0.2697586E+01  0.1693449E+01 -0.1422932E-06 -0.2785189E-05  0.8039526E+01  0.5046366E+01
  0.1720000E+01  0.2697586E+01  0.9069748E+00 -0.1422932E-06 -0.2766941E-05  0.8039526E+01  0.2702615E+01
  0.1730000E+01  0.2697586E+01  0.9670212E-01 -0.1422932E-06 -0.2661629E-05  0.8039526E+01  0.2879592E+00
  0.1740000E+01  0.2697586E+01 -0.7071706E+00 -0.1422932E-06 -0.2456403E-05  0.8039526E+01 -0.2107618E+01
  0.1750000E+01  0.2697586E+01 -0.1474913E+01 -0.1422932E-06 -0.2141254E-05  0.8039526E+01 -0.4395513E+01
  0.1760000E+01  0.2697586E+01 -0.2178459E+01 -0.1422932E-06 -0.1709415E-05  0.8039526E+01 -0.6492109E+01
  0.1770000E+01  0.2697586E+01 -0.2792490E+01 -0.1422932E-06 -0.1157650E-05  0.8039526E+01 -0.8321941E+01
  0.1780000E+01  0.2697586E+01 -0.3295305E+01 -0.1422932E-06 -0.4864273E-06  0.8039526E+01 -0.9820345E+01
  0.1790000E+01  0.2697586E+01 -0.3669803E+01 -0.1422932E-06  0.3000033E-06  0.8039526E+01 -0.1093636E+02
  0.1800000E+01  0.2697586E+01 -0.3904011E+01 -0.1422932E-06  0.1193682E-05  0.8039526E+01 -0.1163428E+02
  0.1810000E+01  0.2697586E+01 -0.3991432E+01 -0.1422932E-06  0.2183145E-05  0.8039526E+01 -0.1189480E+02
  0.1820000E+01  0.2697586E+01 -0.3931416E+01 -0.1422932E-06  0.3253688E-05  0.8039526E+01 -0.1171593E+02
  0.1830000E+01  0.2697586E+01 -0.3728942E+01 -0.1422932E-06  0.4387841E-05  0.8039526E+01 -0.1111255E+02
  0.1840000E+01  0.2697586E+01 -0.3394490E+01 -0.1422932E-06  0.5565815E-05  0.8039526E+01 -0.1011585E+02
  0.1850000E+01  0.2697586E+01 -0.2943533E+01 -0.1422932E-06  0.6766159E-05  0.8039526E+01 -0.8771984E+01
  0.1860000E+01  0.2697586E+01 -0.2395824E+01 -0.1422932E-06  0.7966340E-05  0.8039526E+01 -0.7139778E+01
  0.1870000E+01  0.2697586E+01 -0.1774562E+01 -0.1422932E-06  0.9143451E-05  0.8039526E+01 -0.5288390E+01
  0.1880000E+01  0.2697586E+01 -0.1105574E+01 -0.1422932E-06  0.1027495E-04  0.8039526E+01 -0.3294770E+01
  0.1890000E+01  0.2697586E+01 -0.4161013E+00 -0.1422932E-06  0.1133931E-04  0.8039526E+01 -0.1240108E+01
  0.1900000E+01  0.2697586E+01  0.2661699E+00 -0.1422932E-06  0.1231666E-04  0.8039526E+01  0.7930906E+00
  0.1910000E+01  0.2697586E+01  0.9143348E+00 -0.1422932E-06  0.1318943E-04  0.8039526E+01  0.2724648E+01
  0.1920000E+01  0.2697586E+01  0.1503126E+01 -0.1422932E-06  0.1394286E-04  0.8039526E+01  0.4479273E+01
  0.1930000E+01  0.2697586E+01  0.2010064E+01 -0.1422932E-06  0.1456541E-04  0.8039526E+01  0.5989976E+01
  0.1940000E+01  0.2697586E+01  0.2416302E+01 -0.1422932E-06  0.1504913E-04  0.8039526E+01  0.7200577E+01
  0.1950000E+01  0.2697586E+01  0.2707151E+01 -0.1422932E-06  0.1538980E-04  0.8039526E+01  0.8067328E+01
  0.1960000E+01  0.2697586E+01  0.2872871E+01 -0.1422932E-06  0.1558710E-04  0.8039526E+01  0.8561177E+01
  0.1970000E+01  0.2697586E+01  0.2908747E+01 -0.1422932E-06  0.1564449E-04  0.8039526E+01  0.8668094E+01
  0.1980000E+01  0.2697586E+01  0.2815383E+01 -0.1422932E-06  0.1556904E-04  0.8039526E+01  0.8389887E+01
  0.1990000E+01  0.2697586E+01  0.2598591E+01 -0.1422932E-06  0.1537120E-04  0.8039526E+01  0.7743857E+01
  0.2000000E+01  0.2697586E+01  0.2268953E+01 -0.1422932E-06  0.1506432E-04  0.8039526E+01  0.6761527E+01
  0.2010000E+01  0.2697586E+01  0.1841568E+01 -0.1422932E-06  0.1466417E-04  0.8039526E+01  0.5487907E+01
  0.2020000E+01  0.2697586E+01  0.1335256E+01 -0.1422932E-06  0.1418837E-04  0.8039526E+01  0.3979088E+01
  0.2030000E+01  0.2697586E+01  0.7717584E+00 -0.1422932E-06  0.1365577E-04  0.8039526E+01  0.2299871E+01
  0.2040000E+01  0.2697586E+01  0.1749076E+00 -0.1422932E-06  0.1308573E-04  0.8039526E+01  0.5212448E+00
  0.2050000E+01  0.2697586E+01 -0.4303788E+00 -0.1422932E-06  0.1249746E-04  0.8039526E+01 -0.1282516E+01
  0.2060000E+01  0.2697586E+01 -0.1019160E+01 -0.1422932E-06  0.1190935E-04  0.8039526E+01 -0.3037098E+01
  0.2070000E+01  0.2697586E+01 -0.1567334E+01 -0.1422932E-06  0.1133832E-04  0.8039526E+01 -0.4670665E+01
  0.2080000E+01  0.2697586E+01 -0.2052738E+01 -0.1422932E-06  0.1079920E-04  0.8039526E+01 -0.6117173E+01
  0.2090000E+01  0.2697586E+01 -0.2455973E+01 -0.1422932E-06  0.1030430E-04  0.8039526E+01 -0.7318824E+01
  0.2100000E+01  0.2697586E+01 -0.2760997E+01 -0.1422932E-06  0.9862877E-05  0.8039526E+01 -0.8227792E+01
  0.2110000E+01  0.2697586E+01 -0.2955997E+01 -0.1422932E-06  0.9480953E-05  0.8039526E+01 -0.8808890E+01
  0.2120000E+01  0.2697586E+01 -0.3033625E+01 -0.1422932E-06  0.9161027E-05  0.8039526E+01 -0.9040219E+01
  0.2130000E+01  0.2697586E+01 -0.2991307E+01 -0.1422932E-06  0.8902058E-05  0.8039526E+01 -0.8914096E+01
  0.2140000E+01  0.2697586E+01 -0.2831330E+01 -0.1422932E-06  0.8699526E-05  0.8039526E+01 -0.8437357E+01
  0.2150000E+01  0.2697586E+01 -0.2560665E+01 -0.1422932E-06  0.8545591E-05  0.8039526E+01 -0.7630754E+01
  0.2160000E+01  0.2697586E+01 -0.2190670E+01 -0.1422932E-06  0.8429438E-05  0.8039526E+01 -0.6528156E+01
  0.2170000E+01  0.2697586E+01 -0.1736574E+01 -0.1422932E-06  0.8337637E-05  0.8039526E+01 -0.5174919E+01
  0.2180000E+01  0.2697586E+01 -0.1216796E+01 -0.1422932E-06  0.8254693E-05  0.8039526E+01 -0.3625964E+01
  0.2190000E+01  0.2697586E+01 -0.6523384E+00 -0.1422932E-06  0.8163614E-05  0.8039526E+01 -0.1943875E+01
  0.2200000E+01  0.2697586E+01 -0.6574816E-01 -0.1422932E-06  0.8046530E-05  0.8039526E+01 -0.1957942E+00
  0.2210000E+01  0.2697586E+01  0.5196748E+00 -0.1422932E-06  0.7885365E-05  0.8039526E+01  0.1548776E+01
  0.2220000E+01  0.2697586E+01  0.1080952E+01 -0.1422932E-06  0.7662547E-05  0.8039526E+01  0.3221420E+01
  0.2230000E+01  0.2697586E+01  0.1596137E+01 -0.1422932E-06  0.7361619E-05  0.8039526E+01  0.4756704E+01
  0.2240000E+01  0.2697586E+01  0.2045270E+01 -0.1422932E-06  0.6967929E-05  0.8039526E+01  0.6095121E+01
  0.2250000E+01  0.2697586E+01  0.2411324E+01 -0.1422932E-06  0.6469169E-05  0.8039526E+01  0.7185976E+01
  0.2260000E+01  0.2697586E+01  0.2680593E+01 -0.1422932E-06  0.5855864E-05  0.8039526E+01  0.7988427E+01
  0.2270000E+01  0.2697586E+01  0.2843319E+01 -0.1422932E-06  0.5121813E-05  0.8039526E+01  0.8473350E+01
  0.2280000E+01  0.2697586E+01  0.2894099E+01 -0.1422932E-06  0.4264348E-05  0.8039526E+01  0.8624677E+01
  0.2290000E+01  0.2697586E+01  0.2831960E+01 -0.1422932E-06  0.3284553E-05  0.8039526E+01  0.8439505E+01
  0.2300000E+01  0.2697586E+01  0.2660439E+01 -0.1422932E-06  0.2187279E-05  0.8039526E+01  0.7928369E+01
  0.2310000E+01  0.2697586E+01  0.2387430E+01 -0.1422932E-06  0.9811191E-06  0.8039526E+01  0.7114788E+01
  0.2320000E+01  0.2697586E+01  0.2024699E+01 -0.1422932E-06 -0.3217836E-06  0.8039526E+01  0.6033825E+01
  0.2330000E+01  0.2697586E+01  0.1587423E+01 -0.1422932E-06 -0.1706064E-05  0.8039526E+01  0.4730716E+01
  0.2340000E+01  0.2697586E+01  0.1093782E+01 -0.1422932E-06 -0.3153516E-05  0.8039526E+01  0.3259657E+01
  0.2350000E+01  0.2697586E+01  0.5638943E+00 -0.1422932E-06 -0.4643578E-05  0.8039526E+01  0.1680547E+01
  0.2360000E+01  0.2697586E+01  0.1914821E-01 -0.1422932E-06 -0.6153943E-05  0.8039526E+01  0.5717566E-01
  0.2370000E+01  0.2697586E+01 -0.5186627E+00 -0.1422932E-06 -0.7661110E-05  0.8039526E+01 -0.1545558E+01
  0.2380000E+01  0.2697586E+01 -0.1028139E+01 -0.1422932E-06 -0.9141131E-05  0.8039526E+01 -0.3063838E+01
  0.2390000E+01  0.2697586E+01 -0.1489339E+01 -0.1422932E-06 -0.1057020E-04  0.8039526E+01 -0.4438254E+01
  0.2400000E+01  0.2697586E+01 -0.1884323E+01 -0.1422932E-06 -0.1192538E-04  0.8039526E+01 -0.5615349E+01
  0.2410000E+01  0.2697586E+01 -0.2197903E+01 -0.1422932E-06 -0.1318515E-04  0.8039526E+01 -0.6549865E+01
  0.2420000E+01  0.2697586E+01 -0.2418407E+01 -0.1422932E-06 -0.1433008E-04  0.8039526E+01 -0.7207015E+01
  0.2430000E+01  0.2697586E+01 -0.2537866E+01 -0.1422932E-06 -0.1534327E-04  0.8039526E+01 -0.7563042E+01
  0.2440000E+01  0.2697586E+01 -0.2552377E+01 -0.1422932E-06 -0.1621080E-04  0.8039526E+01 -0.7606326E+01
  0.2450000E+01  0.2697586E+01 -0.2462407E+01 -0.1422932E-06 -0.1692199E-04  0.8039526E+01 -0.7338270E+01
  0.2460000E+01  0.2697586E+01 -0.2272461E+01 -0.1422932E-06 -0.1746979E-04  0.8039526E+01 -0.6772252E+01
  0.2470000E+01  0.2697586E+01 -0.1990910E+01 -0.1422932E-06 -0.1785073E-04  0.8039526E+01 -0.5933254E+01
  0.2480000E+01  0.2697586E+01 -0.1629955E+01 -0.1422932E-06 -0.1806499E-04  0.8039526E+01 -0.4857627E+01
  0.2490000E+01  0.2697586E+01 -0.1204687E+01 -0.1422932E-06 -0.1811629E-04  0.8039526E+01 -0.3590337E+01
  0.2500000E+01  0.2697586E+01 -0.7327147E+00 -0.1422932E-06 -0.1801161E-04  0.8039526E+01 -0.2183877E+01
  0.2510000E+01  0.2697586E+01 -0.2333139E+00 -0.1422932E-06 -0.1776102E-04  0.8039526E+01 -0.6956790E+00
  0.2520000E+01  0.2697586E+01  0.2732050E+00 -0.1422932E-06 -0.1737712E-04  0.8039526E+01  0.8137815E+00
  0.2530000E+01  0.2697586E+01  0.7664880E+00 -0.1422932E-06 -0.1687472E-04  0.8039526E+01  0.2283762E+01
  0.2540000E+01  0.2697586E+01  0.1226771E+01 -0.1422932E-06 -0.1627025E-04  0.8039526E+01  0.3655432E+01
  0.2550000E+01  0.2697586E+01  0.1635839E+01 -0.1422932E-06 -0.1558128E-04  0.8039526E+01  0.4874484E+01
  0.2560000E+01  0.2697586E+01  0.1977641E+01 -0.1422932E-06 -0.1482590E-04  0.8039526E+01  0.5893086E+01
  0.2570000E+01  0.2697586E+01  0.2238825E+01 -0.1422932E-06 -0.1402221E-04  0.8039526E+01  0.6671456E+01
  0.2580000E+01  0.2697586E+01  0.2409423E+01 -0.1422932E-06 -0.1318780E-04  0.8039526E+01  0.7179875E+01
  0.2590000E+01  0.2697586E+01  0.2483193E+01 -0.1422932E-06 -0.1233923E-04  0.8039526E+01  0.7399762E+01
  0.2600000E+01  0.2697586E+01  0.2457650E+01 -0.1422932E-06 -0.1149166E-04  0.8039526E+01  0.7323699E+01
  0.2610000E+01  0.2697586E+01  0.2334378E+01 -0.1422932E-06 -0.1065842E-04  0.8039526E+01  0.6956402E+01
  0.2620000E+01  0.2697586E+01  0.2118896E+01 -0.1422932E-06 -0.9850763E-05  0.8039526E+01  0.6314312E+01
  0.2630000E+01  0.2697586E+01  0.1820196E+01 -0.1422932E-06 -0.9077683E-05  0.8039526E+01  0.5424242E+01
  0.2640000E+01  0.2697586E+01  0.1450676E+01 -0.1422932E-06 -0.8345731E-05  0.8039526E+01  0.4323123E+01
  0.2650000E+01  0.2697586E+01  0.1025339E+01 -0.1422932E-06 -0.7659100E-05  0.8039526E+01  0.3055670E+01
  0.2660000E+01  0.2697586E+01  0.5614018E+00 -0.1422932E-06 -0.7019600E-05  0.8039526E+01  0.1673176E+01
  0.2670000E+01  0.2697586E+01  0.7747476E-01 -0.1422932E-06 -0.6426848E-05  0.8039526E+01  0.2311105E+00
  0.2680000E+01  0.2697586E+01 -0.4071766E+00 -0.1422932E-06 -0.5878463E-05  0.8039526E+01 -0.1213116E+01
  0.2690000E+01  0.2697586E+01 -0.8733909E+00 -0.1422932E-06 -0.5370339E-05  0.8039526E+01 -0.2602410E+01
  0.2700000E+01  0.2697586E+01 -0.1302765E+01 -0.1422932E-06 -0.4897016E-05  0.8039526E+01 -0.3881926E+01
  0.2710000E+01  0.2697586E+01 -0.1678632E+01 -0.1422932E-06 -0.4451972E-05  0.8039526E+01 -0.5001980E+01
  0.2720000E+01  0.2697586E+01 -0.1986420E+01 -0.1422932E-06 -0.4028045E-05  0.8039526E+01 -0.5919177E+01
  0.2730000E+01  0.2697586E+01 -0.2214413E+01 -0.1422932E-06 -0.3617788E-05  0.8039526E+01 -0.6598608E+01
  0.2740000E+01  0.2697586E+01 -0.2354131E+01 -0.1422932E-06 -0.3213895E-05  0.8039526E+01 -0.7014973E+01
  0.2750000E+01  0.2697586E+01 -0.2400636E+01 -0.1422932E-06 -0.2809448E-05  0.8039526E+01 -0.7153566E+01
  0.2760000E+01  0.2697586E+01 -0.2352664E+01 -0.1422932E-06 -0.2398335E-05  0.8039526E+01 -0.7010627E+01
  0.2770000E+01  0.2697586E+01 -0.2212757E+01 -0.1422932E-06 -0.1975430E-05  0.8039526E+01 -0.6593731E+01
  0.2780000E+01  0.2697586E+01 -0.1987059E+01 -0.1422932E-06 -0.1536832E-05  0.8039526E+01 -0.5921178E+01