VARIABLES="w (rad/s)"
"abs(F   1   1)" "angle(F   1   1)"
"abs(F   1   2)" "angle(F   1   2)"
"abs(F   1   3)" "angle(F   1   3)"
Zone t="FKforce - beta =   0.000",I=    32,F=POINT
  0.1000000E+00  0.1753541E+04 -0.1570791E+01  0.3522824E+06  0.2403107E-10  0.2722121E+04 -0.1570802E+01
  0.2000000E+00  0.6970840E+04 -0.1570796E+01  0.3470585E+06 -0.4690713E-11  0.1081132E+05 -0.1570797E+01
  0.3000000E+00  0.1552276E+05 -0.1570796E+01  0.3384725E+06  0.1689009E-09  0.2403761E+05 -0.1570797E+01
  0.4000000E+00  0.2719677E+05 -0.1570796E+01  0.3267079E+06  0.4485748E-10  0.4202318E+05 -0.1570796E+01
  0.5000000E+00  0.4170079E+05 -0.1570796E+01  0.3120145E+06  0.7688070E-09  0.6424996E+05 -0.1570796E+01
  0.6000001E+00  0.5866907E+05 -0.1570796E+01  0.2946999E+06 -0.9864501E-09  0.9007181E+05 -0.1570796E+01
  0.7000000E+00  0.7766876E+05 -0.1570796E+01  0.2751313E+06  0.8747953E-09  0.1187279E+06 -0.1570796E+01
  0.8000001E+00  0.9820886E+05 -0.1570796E+01  0.2537192E+06  0.1782483E-08  0.1493624E+06 -0.1570796E+01
  0.9000000E+00  0.1197498E+06 -0.1570796E+01  0.2309138E+06  0.1957879E-08  0.1810442E+06 -0.1570796E+01
  0.1000000E+01  0.1417136E+06 -0.1570796E+01  0.2071909E+06 -0.5953535E-09  0.2127928E+06 -0.1570796E+01
  0.1100000E+01  0.1634986E+06 -0.1570796E+01  0.1830417E+06 -0.4860090E-09  0.2436053E+06 -0.1570796E+01
  0.1200000E+01  0.1844903E+06 -0.1570796E+01  0.1589618E+06  0.3130932E-08  0.2724841E+06 -0.1570796E+01
  0.1300000E+01  0.2040788E+06 -0.1570796E+01  0.1354373E+06  0.8362599E-08  0.2984709E+06 -0.1570796E+01
  0.1400000E+01  0.2216693E+06 -0.1570796E+01  0.1129316E+06  0.5655317E-08  0.3206786E+06 -0.1570796E+01
  0.1500000E+01  0.2367051E+06 -0.1570796E+01  0.9187312E+05 -0.1080496E-07  0.3383199E+06 -0.1570796E+01
  0.1600000E+01  0.2486779E+06 -0.1570796E+01  0.7264245E+05  0.2641667E-08  0.3507431E+06 -0.1570796E+01
  0.1700000E+01  0.2571489E+06 -0.1570796E+01  0.5555905E+05  0.5083539E-08  0.3574514E+06 -0.1570796E+01
  0.1800000E+01  0.2617616E+06 -0.1570796E+01  0.4087088E+05 -0.2317706E-07  0.3581355E+06 -0.1570796E+01
  0.1900000E+01  0.2622599E+06 -0.1570796E+01  0.2874447E+05 -0.9180570E-07  0.3526828E+06 -0.1570796E+01
  0.2000000E+01  0.2585002E+06 -0.1570796E+01  0.1925754E+05 -0.1029379E-06  0.3411922E+06 -0.1570796E+01
  0.2100000E+01  0.2504632E+06 -0.1570796E+01  0.1239412E+05 -0.6146039E-08  0.3239764E+06 -0.1570796E+01
  0.2200000E+01  0.2382631E+06 -0.1570796E+01  0.8043349E+04 -0.4561302E-07  0.3015532E+06 -0.1570796E+01
  0.2300000E+01  0.2221504E+06 -0.1570796E+01  0.6001867E+04 -0.2978511E-06  0.2746319E+06 -0.1570796E+01
  0.2400000E+01  0.2025130E+06 -0.1570796E+01  0.5980335E+04 -0.3676194E-06  0.2440863E+06 -0.1570796E+01
  0.2500000E+01  0.1798707E+06 -0.1570796E+01  0.7614877E+04 -0.1037374E-06  0.2109234E+06 -0.1570796E+01
  0.2600000E+01  0.1548605E+06 -0.1570796E+01  0.1048242E+05 -0.1151986E-06  0.1762388E+06 -0.1570796E+01
  0.2700000E+01  0.1282236E+06 -0.1570796E+01  0.1412062E+05 -0.1382465E-06  0.1411729E+06 -0.1570796E+01
  0.2800000E+01  0.1007779E+06 -0.1570796E+01  0.1805095E+05 -0.2203068E-08  0.1068583E+06 -0.1570796E+01
  0.2900000E+01  0.7338959E+05 -0.1570796E+01  0.2180483E+05 -0.5486581E-08  0.7436671E+05 -0.1570796E+01
  0.3000000E+01  0.4693796E+05 -0.1570796E+01  0.2495003E+05 -0.3534990E-07  0.4466252E+05 -0.1570796E+01
  0.3100000E+01  0.2227715E+05 -0.1570796E+01  0.2711768E+05 -0.4970955E-07  0.1855390E+05 -0.1570796E+01
  0.3200000E+01  0.1959502E+03 -0.1570794E+01  0.2802659E+05 -0.3522357E-07  0.3342205E+04  0.1570796E+01
