VARIABLES="X" "Y" "Z" "NX" "NY" "NZ" "A"
 ZONE N=         784 , E=         196  , F=FEPOINT,ET=QUADRILATERAL
   0.8981510E-01   0.5766300E-02  -0.1000000E-02   0.0000000E+00   0.0000000E+00   0.0000000E+00   0.0000000E+00
   0.9101070E-01   0.5843100E-02   0.0000000E+00   0.0000000E+00   0.0000000E+00   0.0000000E+00   0.0000000E+00
   0.9000000E-01   0.0000000E+00  -0.1000000E-02   0.0000000E+00   0.0000000E+00   0.0000000E+00   0.0000000E+00
   0.9119800E-01   0.0000000E+00   0.0000000E+00   0.0000000E+00   0.0000000E+00   0.0000000E+00   0.0000000E+00
   0.8926110E-01   0.1150890E-01  -0.1000000E-02   0.0000000E+00   0.0000000E+00   0.0000000E+00   0.0000000E+00
   0.9044930E-01   0.1166210E-01   0.0000000E+00   0.0000000E+00   0.0000000E+00   0.0000000E+00   0.0000000E+00
   0.8981510E-01   0.5766300E-02  -0.1000000E-02   0.0000000E+00   0.0000000E+00   0.0000000E+00   0.0000000E+00
   0.9101070E-01   0.5843100E-02   0.0000000E+00   0.0000000E+00   0.0000000E+00   0.0000000E+00   0.0000000E+00
   0.8834030E-01   0.1720430E-01  -0.1000000E-02   0.0000000E+00   0.0000000E+00   0.0000000E+00   0.0000000E+00
   0.8951630E-01   0.1743330E-01   0.0000000E+00   0.0000000E+00   0.0000000E+00   0.0000000E+00   0.0000000E+00
   0.8926110E-01   0.1150890E-01  -0.1000000E-02   0.0000000E+00   0.0000000E+00   0.0000000E+00   0.0000000E+00
   0.9044930E-01   0.1166210E-01   0.0000000E+00   0.0000000E+00   0.0000000E+00   0.0000000E+00   0.0000000E+00
   0.8705650E-01   0.2282890E-01  -0.1000000E-02   0.0000000E+00   0.0000000E+00   0.0000000E+00   0.0000000E+00
   0.8821540E-01   0.2313280E-01   0.0000000E+00   0.0000000E+00   0.0000000E+00   0.0000000E+00   0.0000000E+00
   0.8834030E-01   0.1720430E-01  -0.1000000E-02   0.0000000E+00   0.0000000E+00   0.0000000E+00   0.0000000E+00
   0.8951630E-01   0.1743330E-01   0.0000000E+00   0.0000000E+00   0.0000000E+00   0.0000000E+00   0.0000000E+00
   0.8541500E-01   0.2835970E-01  -0.1000000E-02   0.0000000E+00   0.0000000E+00   0.0000000E+00   0.0000000E+00
   0.8655200E-01   0.2873730E-01   0.0000000E+00   0.0000000E+00   0.0000000E+00   0.0000000E+00   0.0000000E+00
   0.8705650E-01   0.2282890E-01  -0.1000000E-02   0.0000000E+00   0.0000000E+00   0.0000000E+00   0.0000000E+00
   0.8821540E-01   0.2313280E-01   0.0000000E+00   0.0000000E+00   0.0000000E+00   0.0000000E+00   0.0000000E+00
   0.8342250E-01   0.3377400E-01  -0.1000000E-02   0.0000000E+00   0.0000000E+00   0.0000000E+00   0.0000000E+00
   0.8453300E-01   0.3422360E-01   0.0000000E+00   0.0000000E+00   0.0000000E+00   0.0000000E+00   0.0000000E+00
   0.8541500E-01   0.2835970E-01  -0.1000000E-02   0.0000000E+00   0.0000000E+00   0.0000000E+00   0.0000000E+00
   0.8655200E-01   0.2873730E-01   0.0000000E+00   0.0000000E+00   0.0000000E+00   0.0000000E+00   0.0000000E+00
   0.8108720E-01   0.3904950E-01  -0.1000000E-02   0.0000000E+00   0.0000000E+00   0.0000000E+00   0.0000000E+00
   0.8216660E-01   0.3956930E-01   0.0000000E+00   0.0000000E+00   0.0000000E+00   0.0000000E+00   0.0000000E+00
   0.8342250E-01   0.3377400E-01  -0.1000000E-02   0.0000000E+00   0.0000000E+00   0.0000000E+00   0.0000000E+00
   0.8453300E-01   0.3422360E-01   0.0000000E+00   0.0000000E+00   0.0000000E+00   0.0000000E+00   0.0000000E+00
   0.7841870E-01   0.4416460E-01  -0.1000000E-02   0.0000000E+00   0.0000000E+00   0.0000000E+00   0.0000000E+00
   0.7946260E-01   0.4475250E-01   0.0000000E+00   0.0000000E+00   0.0000000E+00   0.0000000E+00   0.0000000E+00
   0.8108720E-01   0.3904950E-01  -0.1000000E-02   0.0000000E+00   0.0000000E+00   0.0000000E+00   0.0000000E+00
   0.8216660E-01   0.3956930E-01   0.0000000E+00   0.0000000E+00   0.0000000E+00   0.0000000E+00   0.0000000E+00
   0.7542790E-01   0.4909810E-01  -0.1000000E-02   0.0000000E+00   0.0000000E+00   0.0000000E+00   0.0000000E+00
   0.7643200E-01   0.4975170E-01   0.0000000E+00   0.0000000E+00   0.0000000E+00   0.0000000E+00   0.0000000E+00
   0.7841870E-01   0.4416460E-01  -0.1000000E-02   0.0000000E+00   0.0000000E+00   0.0000000E+00   0.0000000E+00
   0.7946260E-01   0.4475250E-01   0.0000000E+00   0.0000000E+00   0.0000000E+00   0.0000000E+00   0.0000000E+00
   0.7212720E-01   0.5382990E-01  -0.1000000E-02   0.0000000E+00   0.0000000E+00   0.0000000E+00   0.0000000E+00
   0.7308740E-01   0.5454650E-01   0.0000000E+00   0.0000000E+00   0.0000000E+00   0.0000000E+00   0.0000000E+00
   0.7542790E-01   0.4909810E-01  -0.1000000E-02   0.0000000E+00   0.0000000E+00   0.0000000E+00   0.0000000E+00
   0.7643200E-01   0.4975170E-01   0.0000000E+00   0.0000000E+00   0.0000000E+00   0.0000000E+00   0.0000000E+00
   0.6853010E-01   0.5834060E-01  -0.1000000E-02   0.0000000E+00   0.0000000E+00   0.0000000E+00   0.0000000E+00
   0.6944240E-01   0.5911720E-01   0.0000000E+00   0.0000000E+00   0.0000000E+00   0.0000000E+00   0.0000000E+00
   0.7212720E-01   0.5382990E-01  -0.1000000E-02   0.0000000E+00   0.0000000E+00   0.0000000E+00   0.0000000E+00
   0.7308740E-01   0.5454650E-01   0.0000000E+00   0.0000000E+00   0.0000000E+00   0.0000000E+00   0.0000000E+00
   0.6465140E-01   0.6261140E-01  -0.1000000E-02   0.0000000E+00   0.0000000E+00   0.0000000E+00   0.0000000E+00
   0.6551200E-01   0.6344490E-01   0.0000000E+00   0.0000000E+00   0.0000000E+00   0.0000000E+00   0.0000000E+00
   0.6853010E-01   0.5834060E-01  -0.1000000E-02   0.0000000E+00   0.0000000E+00   0.0000000E+00   0.0000000E+00
   0.6944240E-01   0.5911720E-01   0.0000000E+00   0.0000000E+00   0.0000000E+00   0.0000000E+00   0.0000000E+00
   0.6050710E-01   0.6662500E-01  -0.1000000E-02   0.0000000E+00   0.0000000E+00   0.0000000E+00   0.0000000E+00
   0.6131250E-01   0.6751190E-01   0.0000000E+00   0.0000000E+00   0.0000000E+00   0.0000000E+00   0.0000000E+00
   0.6465140E-01   0.6261140E-01  -0.1000000E-02   0.0000000E+00   0.0000000E+00   0.0000000E+00   0.0000000E+00
   0.6551200E-01   0.6344490E-01   0.0000000E+00   0.0000000E+00   0.0000000E+00   0.0000000E+00   0.0000000E+00
   0.5611410E-01   0.7036480E-01  -0.1000000E-02   0.0000000E+00   0.0000000E+00   0.0000000E+00   0.0000000E+00
   0.5686100E-01   0.7130150E-01   0.0000000E+00   0.0000000E+00   0.0000000E+00   0.0000000E+00   0.0000000E+00
   0.6050710E-01   0.6662500E-01  -0.1000000E-02   0.0000000E+00   0.0000000E+00   0.0000000E+00   0.0000000E+00
   0.6131250E-01   0.6751190E-01   0.0000000E+00   0.0000000E+00   0.0000000E+00   0.0000000E+00   0.0000000E+00
   0.5149050E-01   0.7381550E-01  -0.1000000E-02   0.0000000E+00   0.0000000E+00   0.0000000E+00   0.0000000E+00
   0.5217590E-01   0.7479810E-01   0.0000000E+00   0.0000000E+00   0.0000000E+00   0.0000000E+00   0.0000000E+00
   0.5611410E-01   0.7036480E-01  -0.1000000E-02   0.0000000E+00   0.0000000E+00   0.0000000E+00   0.0000000E+00
   0.5686100E-01   0.7130150E-01   0.0000000E+00   0.0000000E+00   0.0000000E+00   0.0000000E+00   0.0000000E+00
   0.4665530E-01   0.7696290E-01  -0.1000000E-02   0.0000000E+00   0.0000000E+00   0.0000000E+00   0.0000000E+00
   0.4727640E-01   0.7798730E-01   0.0000000E+00   0.0000000E+00   0.0000000E+00   0.0000000E+00   0.0000000E+00
   0.5149050E-01   0.7381550E-01  -0.1000000E-02   0.0000000E+00   0.0000000E+00   0.0000000E+00   0.0000000E+00
   0.5217590E-01   0.7479810E-01   0.0000000E+00   0.0000000E+00   0.0000000E+00   0.0000000E+00   0.0000000E+00
   0.4162850E-01   0.7979390E-01  -0.1000000E-02   0.0000000E+00   0.0000000E+00   0.0000000E+00   0.0000000E+00
   0.4218260E-01   0.8085610E-01   0.0000000E+00   0.0000000E+00   0.0000000E+00   0.0000000E+00   0.0000000E+00
   0.4665530E-01   0.7696290E-01  -0.1000000E-02   0.0000000E+00   0.0000000E+00   0.0000000E+00   0.0000000E+00
   0.4727640E-01   0.7798730E-01   0.0000000E+00   0.0000000E+00   0.0000000E+00   0.0000000E+00   0.0000000E+00
   0.3643050E-01   0.8229710E-01  -0.1000000E-02   0.0000000E+00   0.0000000E+00   0.0000000E+00   0.0000000E+00
   0.3691540E-01   0.8339260E-01   0.0000000E+00   0.0000000E+00   0.0000000E+00   0.0000000E+00   0.0000000E+00
   0.4162850E-01   0.7979390E-01  -0.1000000E-02   0.0000000E+00   0.0000000E+00   0.0000000E+00   0.0000000E+00
   0.4218260E-01   0.8085610E-01   0.0000000E+00   0.0000000E+00   0.0000000E+00   0.0000000E+00   0.0000000E+00
   0.3108280E-01   0.8446220E-01  -0.1000000E-02   0.0000000E+00   0.0000000E+00   0.0000000E+00   0.0000000E+00
   0.3149660E-01   0.8558650E-01   0.0000000E+00   0.0000000E+00   0.0000000E+00   0.0000000E+00   0.0000000E+00
   0.3643050E-01   0.8229710E-01  -0.1000000E-02   0.0000000E+00   0.0000000E+00   0.0000000E+00   0.0000000E+00
   0.3691540E-01   0.8339260E-01   0.0000000E+00   0.0000000E+00   0.0000000E+00   0.0000000E+00   0.0000000E+00
   0.2560750E-01   0.8628010E-01  -0.1000000E-02   0.0000000E+00   0.0000000E+00   0.0000000E+00   0.0000000E+00
   0.2594840E-01   0.8742860E-01   0.0000000E+00   0.0000000E+00   0.0000000E+00   0.0000000E+00   0.0000000E+00
   0.3108280E-01   0.8446220E-01  -0.1000000E-02   0.0000000E+00   0.0000000E+00   0.0000000E+00   0.0000000E+00
   0.3149660E-01   0.8558650E-01   0.0000000E+00   0.0000000E+00   0.0000000E+00   0.0000000E+00   0.0000000E+00
   0.2002690E-01   0.8774350E-01  -0.1000000E-02   0.0000000E+00   0.0000000E+00   0.0000000E+00   0.0000000E+00
   0.2029350E-01   0.8891150E-01   0.0000000E+00   0.0000000E+00   0.0000000E+00   0.0000000E+00   0.0000000E+00
   0.2560750E-01   0.8628010E-01  -0.1000000E-02   0.0000000E+00   0.0000000E+00   0.0000000E+00   0.0000000E+00
   0.2594840E-01   0.8742860E-01   0.0000000E+00   0.0000000E+00   0.0000000E+00   0.0000000E+00   0.0000000E+00
   0.1436400E-01   0.8884640E-01  -0.1000000E-02   0.0000000E+00   0.0000000E+00   0.0000000E+00   0.0000000E+00
   0.1455520E-01   0.9002900E-01   0.0000000E+00   0.0000000E+00   0.0000000E+00   0.0000000E+00   0.0000000E+00
   0.2002690E-01   0.8774350E-01  -0.1000000E-02   0.0000000E+00   0.0000000E+00   0.0000000E+00   0.0000000E+00
   0.2029350E-01   0.8891150E-01   0.0000000E+00   0.0000000E+00   0.0000000E+00   0.0000000E+00   0.0000000E+00
   0.8642100E-02   0.8958410E-01  -0.1000000E-02   0.0000000E+00   0.0000000E+00   0.0000000E+00   0.0000000E+00
   0.8757100E-02   0.9077660E-01   0.0000000E+00   0.0000000E+00   0.0000000E+00   0.0000000E+00   0.0000000E+00
   0.1436400E-01   0.8884640E-01  -0.1000000E-02   0.0000000E+00   0.0000000E+00   0.0000000E+00   0.0000000E+00
   0.1455520E-01   0.9002900E-01   0.0000000E+00   0.0000000E+00   0.0000000E+00   0.0000000E+00   0.0000000E+00
   0.2884600E-02   0.8995380E-01  -0.1000000E-02   0.0000000E+00   0.0000000E+00   0.0000000E+00   0.0000000E+00
   0.2923000E-02   0.9115120E-01   0.0000000E+00   0.0000000E+00   0.0000000E+00   0.0000000E+00   0.0000000E+00
   0.8642100E-02   0.8958410E-01  -0.1000000E-02   0.0000000E+00   0.0000000E+00   0.0000000E+00   0.0000000E+00
   0.8757100E-02   0.9077660E-01   0.0000000E+00   0.0000000E+00   0.0000000E+00   0.0000000E+00   0.0000000E+00
  -0.2884600E-02   0.8995380E-01  -0.1000000E-02   0.0000000E+00   0.0000000E+00   0.0000000E+00   0.0000000E+00
  -0.2923000E-02   0.9115120E-01   0.0000000E+00   0.0000000E+00   0.0000000E+00   0.0000000E+00   0.0000000E+00
   0.2884600E-02   0.8995380E-01  -0.1000000E-02   0.0000000E+00   0.0000000E+00   0.0000000E+00   0.0000000E+00
   0.2923000E-02   0.9115120E-01   0.0000000E+00   0.0000000E+00   0.0000000E+00   0.0000000E+00   0.0000000E+00
  -0.8642100E-02   0.8958410E-01  -0.1000000E-02   0.0000000E+00   0.0000000E+00   0.0000000E+00   0.0000000E+00
  -0.8757100E-02   0.9077660E-01   0.0000000E+00   0.0000000E+00   0.0000000E+00   0.0000000E+00   0.0000000E+00
  -0.2884600E-02   0.8995380E-01  -0.1000000E-02   0.0000000E+00   0.0000000E+00   0.0000000E+00   0.0000000E+00
  -0.2923000E-02   0.9115120E-01   0.0000000E+00   0.0000000E+00   0.0000000E+00   0.0000000E+00   0.0000000E+00
  -0.1436400E-01   0.8884640E-01  -0.1000000E-02   0.0000000E+00   0.0000000E+00   0.0000000E+00   0.0000000E+00
  -0.1455520E-01   0.9002900E-01   0.0000000E+00   0.0000000E+00   0.0000000E+00   0.0000000E+00   0.0000000E+00
  -0.8642100E-02   0.8958410E-01  -0.1000000E-02   0.0000000E+00   0.0000000E+00   0.0000000E+00   0.0000000E+00
  -0.8757100E-02   0.9077660E-01   0.0000000E+00   0.0000000E+00   0.0000000E+00   0.0000000E+00   0.0000000E+00
  -0.2002690E-01   0.8774350E-01  -0.1000000E-02   0.0000000E+00   0.0000000E+00   0.0000000E+00   0.0000000E+00
  -0.2029350E-01   0.8891150E-01   0.0000000E+00   0.0000000E+00   0.0000000E+00   0.0000000E+00   0.0000000E+00
  -0.1436400E-01   0.8884640E-01  -0.1000000E-02   0.0000000E+00   0.0000000E+00   0.0000000E+00   0.0000000E+00
  -0.1455520E-01   0.9002900E-01   0.0000000E+00   0.0000000E+00   0.0000000E+00   0.0000000E+00   0.0000000E+00
  -0.2560750E-01   0.8628010E-01  -0.1000000E-02   0.0000000E+00   0.0000000E+00   0.0000000E+00   0.0000000E+00
  -0.2594840E-01   0.8742860E-01   0.0000000E+00   0.0000000E+00   0.0000000E+00   0.0000000E+00   0.0000000E+00
  -0.2002690E-01   0.8774350E-01  -0.1000000E-02   0.0000000E+00   0.0000000E+00   0.0000000E+00   0.0000000E+00
  -0.2029350E-01   0.8891150E-01   0.0000000E+00   0.0000000E+00   0.0000000E+00   0.0000000E+00   0.0000000E+00
  -0.3108280E-01   0.8446220E-01  -0.1000000E-02   0.0000000E+00   0.0000000E+00   0.0000000E+00   0.0000000E+00
  -0.3149660E-01   0.8558650E-01   0.0000000E+00   0.0000000E+00   0.0000000E+00   0.0000000E+00   0.0000000E+00
  -0.2560750E-01   0.8628010E-01  -0.1000000E-02   0.0000000E+00   0.0000000E+00   0.0000000E+00   0.0000000E+00
  -0.2594840E-01   0.8742860E-01   0.0000000E+00   0.0000000E+00   0.0000000E+00   0.0000000E+00   0.0000000E+00
  -0.3643050E-01   0.8229710E-01  -0.1000000E-02   0.0000000E+00   0.0000000E+00   0.0000000E+00   0.0000000E+00
  -0.3691540E-01   0.8339260E-01   0.0000000E+00   0.0000000E+00   0.0000000E+00   0.0000000E+00   0.0000000E+00
  -0.3108280E-01   0.8446220E-01  -0.1000000E-02   0.0000000E+00   0.0000000E+00   0.0000000E+00   0.0000000E+00
  -0.3149660E-01   0.8558650E-01   0.0000000E+00   0.0000000E+00   0.0000000E+00   0.0000000E+00   0.0000000E+00
  -0.4162850E-01   0.7979390E-01  -0.1000000E-02   0.0000000E+00   0.0000000E+00   0.0000000E+00   0.0000000E+00
  -0.4218260E-01   0.8085610E-01   0.0000000E+00   0.0000000E+00   0.0000000E+00   0.0000000E+00   0.0000000E+00
  -0.3643050E-01   0.8229710E-01  -0.1000000E-02   0.0000000E+00   0.0000000E+00   0.0000000E+00   0.0000000E+00
  -0.3691540E-01   0.8339260E-01   0.0000000E+00   0.0000000E+00   0.0000000E+00   0.0000000E+00   0.0000000E+00
  -0.4665530E-01   0.7696290E-01  -0.1000000E-02   0.0000000E+00   0.0000000E+00   0.0000000E+00   0.0000000E+00
  -0.4727640E-01   0.7798730E-01   0.0000000E+00   0.0000000E+00   0.0000000E+00   0.0000000E+00   0.0000000E+00
  -0.4162850E-01   0.7979390E-01  -0.1000000E-02   0.0000000E+00   0.0000000E+00   0.0000000E+00   0.0000000E+00
  -0.4218260E-01   0.8085610E-01   0.0000000E+00   0.0000000E+00   0.0000000E+00   0.0000000E+00   0.0000000E+00
  -0.5149050E-01   0.7381550E-01  -0.1000000E-02   0.0000000E+00   0.0000000E+00   0.0000000E+00   0.0000000E+00
  -0.5217590E-01   0.7479810E-01   0.0000000E+00   0.0000000E+00   0.0000000E+00   0.0000000E+00   0.0000000E+00
  -0.4665530E-01   0.7696290E-01  -0.1000000E-02   0.0000000E+00   0.0000000E+00   0.0000000E+00   0.0000000E+00
  -0.4727640E-01   0.7798730E-01   0.0000000E+00   0.0000000E+00   0.0000000E+00   0.0000000E+00   0.0000000E+00
  -0.5611410E-01   0.7036480E-01  -0.1000000E-02   0.0000000E+00   0.0000000E+00   0.0000000E+00   0.0000000E+00
  -0.5686100E-01   0.7130150E-01   0.0000000E+00   0.0000000E+00   0.0000000E+00   0.0000000E+00   0.0000000E+00
  -0.5149050E-01   0.7381550E-01  -0.1000000E-02   0.0000000E+00   0.0000000E+00   0.0000000E+00   0.0000000E+00
  -0.5217590E-01   0.7479810E-01   0.0000000E+00   0.0000000E+00   0.0000000E+00   0.0000000E+00   0.0000000E+00
  -0.6050710E-01   0.6662500E-01  -0.1000000E-02   0.0000000E+00   0.0000000E+00   0.0000000E+00   0.0000000E+00
  -0.6131250E-01   0.6751190E-01   0.0000000E+00   0.0000000E+00   0.0000000E+00   0.0000000E+00   0.0000000E+00
  -0.5611410E-01   0.7036480E-01  -0.1000000E-02   0.0000000E+00   0.0000000E+00   0.0000000E+00   0.0000000E+00
  -0.5686100E-01   0.7130150E-01   0.0000000E+00   0.0000000E+00   0.0000000E+00   0.0000000E+00   0.0000000E+00
  -0.6465140E-01   0.6261140E-01  -0.1000000E-02   0.0000000E+00   0.0000000E+00   0.0000000E+00   0.0000000E+00
  -0.6551200E-01   0.6344490E-01   0.0000000E+00   0.0000000E+00   0.0000000E+00   0.0000000E+00   0.0000000E+00
  -0.6050710E-01   0.6662500E-01  -0.1000000E-02   0.0000000E+00   0.0000000E+00   0.0000000E+00   0.0000000E+00
  -0.6131250E-01   0.6751190E-01   0.0000000E+00   0.0000000E+00   0.0000000E+00   0.0000000E+00   0.0000000E+00
  -0.6853010E-01   0.5834060E-01  -0.1000000E-02   0.0000000E+00   0.0000000E+00   0.0000000E+00   0.0000000E+00
  -0.6944240E-01   0.5911720E-01   0.0000000E+00   0.0000000E+00   0.0000000E+00   0.0000000E+00   0.0000000E+00
  -0.6465140E-01   0.6261140E-01  -0.1000000E-02   0.0000000E+00   0.0000000E+00   0.0000000E+00   0.0000000E+00
  -0.6551200E-01   0.6344490E-01   0.0000000E+00   0.0000000E+00   0.0000000E+00   0.0000000E+00   0.0000000E+00
  -0.7212720E-01   0.5382990E-01  -0.1000000E-02   0.0000000E+00   0.0000000E+00   0.0000000E+00   0.0000000E+00
  -0.7308740E-01   0.5454650E-01   0.0000000E+00   0.0000000E+00   0.0000000E+00   0.0000000E+00   0.0000000E+00
  -0.6853010E-01   0.5834060E-01  -0.1000000E-02   0.0000000E+00   0.0000000E+00   0.0000000E+00   0.0000000E+00
  -0.6944240E-01   0.5911720E-01   0.0000000E+00   0.0000000E+00   0.0000000E+00   0.0000000E+00   0.0000000E+00
  -0.7542790E-01   0.4909810E-01  -0.1000000E-02   0.0000000E+00   0.0000000E+00   0.0000000E+00   0.0000000E+00
  -0.7643200E-01   0.4975170E-01   0.0000000E+00   0.0000000E+00   0.0000000E+00   0.0000000E+00   0.0000000E+00
  -0.7212720E-01   0.5382990E-01  -0.1000000E-02   0.0000000E+00   0.0000000E+00   0.0000000E+00   0.0000000E+00
  -0.7308740E-01   0.5454650E-01   0.0000000E+00   0.0000000E+00   0.0000000E+00   0.0000000E+00   0.0000000E+00
  -0.7841870E-01   0.4416460E-01  -0.1000000E-02   0.0000000E+00   0.0000000E+00   0.0000000E+00   0.0000000E+00
  -0.7946260E-01   0.4475250E-01   0.0000000E+00   0.0000000E+00   0.0000000E+00   0.0000000E+00   0.0000000E+00
  -0.7542790E-01   0.4909810E-01  -0.1000000E-02   0.0000000E+00   0.0000000E+00   0.0000000E+00   0.0000000E+00
  -0.7643200E-01   0.4975170E-01   0.0000000E+00   0.0000000E+00   0.0000000E+00   0.0000000E+00   0.0000000E+00
  -0.8108720E-01   0.3904950E-01  -0.1000000E-02   0.0000000E+00   0.0000000E+00   0.0000000E+00   0.0000000E+00
  -0.8216660E-01   0.3956930E-01   0.0000000E+00   0.0000000E+00   0.0000000E+00   0.0000000E+00   0.0000000E+00
  -0.7841870E-01   0.4416460E-01  -0.1000000E-02   0.0000000E+00   0.0000000E+00   0.0000000E+00   0.0000000E+00
  -0.7946260E-01   0.4475250E-01   0.0000000E+00   0.0000000E+00   0.0000000E+00   0.0000000E+00   0.0000000E+00
  -0.8342250E-01   0.3377400E-01  -0.1000000E-02   0.0000000E+00   0.0000000E+00   0.0000000E+00   0.0000000E+00
  -0.8453300E-01   0.3422360E-01   0.0000000E+00   0.0000000E+00   0.0000000E+00   0.0000000E+00   0.0000000E+00
  -0.8108720E-01   0.3904950E-01  -0.1000000E-02   0.0000000E+00   0.0000000E+00   0.0000000E+00   0.0000000E+00
  -0.8216660E-01   0.3956930E-01   0.0000000E+00   0.0000000E+00   0.0000000E+00   0.0000000E+00   0.0000000E+00
  -0.8541500E-01   0.2835970E-01  -0.1000000E-02   0.0000000E+00   0.0000000E+00   0.0000000E+00   0.0000000E+00
  -0.8655200E-01   0.2873730E-01   0.0000000E+00   0.0000000E+00   0.0000000E+00   0.0000000E+00   0.0000000E+00
  -0.8342250E-01   0.3377400E-01  -0.1000000E-02   0.0000000E+00   0.0000000E+00   0.0000000E+00   0.0000000E+00
  -0.8453300E-01   0.3422360E-01   0.0000000E+00   0.0000000E+00   0.0000000E+00   0.0000000E+00   0.0000000E+00
  -0.8705650E-01   0.2282890E-01  -0.1000000E-02   0.0000000E+00   0.0000000E+00   0.0000000E+00   0.0000000E+00
  -0.8821540E-01   0.2313280E-01   0.0000000E+00   0.0000000E+00   0.0000000E+00   0.0000000E+00   0.0000000E+00
  -0.8541500E-01   0.2835970E-01  -0.1000000E-02   0.0000000E+00   0.0000000E+00   0.0000000E+00   0.0000000E+00
  -0.8655200E-01   0.2873730E-01   0.0000000E+00   0.0000000E+00   0.0000000E+00   0.0000000E+00   0.0000000E+00
  -0.8834030E-01   0.1720430E-01  -0.1000000E-02   0.0000000E+00   0.0000000E+00   0.0000000E+00   0.0000000E+00
  -0.8951630E-01   0.1743330E-01   0.0000000E+00   0.0000000E+00   0.0000000E+00   0.0000000E+00   0.0000000E+00
  -0.8705650E-01   0.2282890E-01  -0.1000000E-02   0.0000000E+00   0.0000000E+00   0.0000000E+00   0.0000000E+00
  -0.8821540E-01   0.2313280E-01   0.0000000E+00   0.0000000E+00   0.0000000E+00   0.0000000E+00   0.0000000E+00
  -0.8926110E-01   0.1150890E-01  -0.1000000E-02   0.0000000E+00   0.0000000E+00   0.0000000E+00   0.0000000E+00
  -0.9044930E-01   0.1166210E-01   0.0000000E+00   0.0000000E+00   0.0000000E+00   0.0000000E+00   0.0000000E+00
  -0.8834030E-01   0.1720430E-01  -0.1000000E-02   0.0000000E+00   0.0000000E+00   0.0000000E+00   0.0000000E+00
  -0.8951630E-01   0.1743330E-01   0.0000000E+00   0.0000000E+00   0.0000000E+00   0.0000000E+00   0.0000000E+00
  -0.8981510E-01   0.5766300E-02  -0.1000000E-02   0.0000000E+00   0.0000000E+00   0.0000000E+00   0.0000000E+00
  -0.9101070E-01   0.5843100E-02   0.0000000E+00   0.0000000E+00   0.0000000E+00   0.0000000E+00   0.0000000E+00
  -0.8926110E-01   0.1150890E-01  -0.1000000E-02   0.0000000E+00   0.0000000E+00   0.0000000E+00   0.0000000E+00
  -0.9044930E-01   0.1166210E-01   0.0000000E+00   0.0000000E+00   0.0000000E+00   0.0000000E+00   0.0000000E+00
  -0.9000000E-01   0.0000000E+00  -0.1000000E-02   0.0000000E+00   0.0000000E+00   0.0000000E+00   0.0000000E+00
  -0.9119800E-01   0.0000000E+00   0.0000000E+00   0.0000000E+00   0.0000000E+00   0.0000000E+00   0.0000000E+00
  -0.8981510E-01   0.5766300E-02  -0.1000000E-02   0.0000000E+00   0.0000000E+00   0.0000000E+00   0.0000000E+00
  -0.9101070E-01   0.5843100E-02   0.0000000E+00   0.0000000E+00   0.0000000E+00   0.0000000E+00   0.0000000E+00
   0.7467940E-01   0.4794600E-02  -0.1100000E-01   0.0000000E+00   0.0000000E+00   0.0000000E+00   0.0000000E+00
   0.8981510E-01   0.5766300E-02  -0.1000000E-02   0.0000000E+00   0.0000000E+00   0.0000000E+00   0.0000000E+00
   0.7483310E-01   0.0000000E+00  -0.1100000E-01   0.0000000E+00   0.0000000E+00   0.0000000E+00   0.0000000E+00
   0.9000000E-01   0.0000000E+00  -0.1000000E-02   0.0000000E+00   0.0000000E+00   0.0000000E+00   0.0000000E+00
   0.7421880E-01   0.9569500E-02  -0.1100000E-01   0.0000000E+00   0.0000000E+00   0.0000000E+00   0.0000000E+00
   0.8926110E-01   0.1150890E-01  -0.1000000E-02   0.0000000E+00   0.0000000E+00   0.0000000E+00   0.0000000E+00
   0.7467940E-01   0.4794600E-02  -0.1100000E-01   0.0000000E+00   0.0000000E+00   0.0000000E+00   0.0000000E+00
   0.8981510E-01   0.5766300E-02  -0.1000000E-02   0.0000000E+00   0.0000000E+00   0.0000000E+00   0.0000000E+00
   0.7345320E-01   0.1430500E-01  -0.1100000E-01   0.0000000E+00   0.0000000E+00   0.0000000E+00   0.0000000E+00
   0.8834030E-01   0.1720430E-01  -0.1000000E-02   0.0000000E+00   0.0000000E+00   0.0000000E+00   0.0000000E+00
   0.7421880E-01   0.9569500E-02  -0.1100000E-01   0.0000000E+00   0.0000000E+00   0.0000000E+00   0.0000000E+00
   0.8926110E-01   0.1150890E-01  -0.1000000E-02   0.0000000E+00   0.0000000E+00   0.0000000E+00   0.0000000E+00
   0.7238570E-01   0.1898180E-01  -0.1100000E-01   0.0000000E+00   0.0000000E+00   0.0000000E+00   0.0000000E+00
   0.8705650E-01   0.2282890E-01  -0.1000000E-02   0.0000000E+00   0.0000000E+00   0.0000000E+00   0.0000000E+00
   0.7345320E-01   0.1430500E-01  -0.1100000E-01   0.0000000E+00   0.0000000E+00   0.0000000E+00   0.0000000E+00
   0.8834030E-01   0.1720430E-01  -0.1000000E-02   0.0000000E+00   0.0000000E+00   0.0000000E+00   0.0000000E+00
   0.7102080E-01   0.2358050E-01  -0.1100000E-01   0.0000000E+00   0.0000000E+00   0.0000000E+00   0.0000000E+00
   0.8541500E-01   0.2835970E-01  -0.1000000E-02   0.0000000E+00   0.0000000E+00   0.0000000E+00   0.0000000E+00
   0.7238570E-01   0.1898180E-01  -0.1100000E-01   0.0000000E+00   0.0000000E+00   0.0000000E+00   0.0000000E+00
   0.8705650E-01   0.2282890E-01  -0.1000000E-02   0.0000000E+00   0.0000000E+00   0.0000000E+00   0.0000000E+00
   0.6936410E-01   0.2808240E-01  -0.1100000E-01   0.0000000E+00   0.0000000E+00   0.0000000E+00   0.0000000E+00
   0.8342250E-01   0.3377400E-01  -0.1000000E-02   0.0000000E+00   0.0000000E+00   0.0000000E+00   0.0000000E+00
   0.7102080E-01   0.2358050E-01  -0.1100000E-01   0.0000000E+00   0.0000000E+00   0.0000000E+00   0.0000000E+00
   0.8541500E-01   0.2835970E-01  -0.1000000E-02   0.0000000E+00   0.0000000E+00   0.0000000E+00   0.0000000E+00
   0.6742230E-01   0.3246890E-01  -0.1100000E-01   0.0000000E+00   0.0000000E+00   0.0000000E+00   0.0000000E+00
   0.8108720E-01   0.3904950E-01  -0.1000000E-02   0.0000000E+00   0.0000000E+00   0.0000000E+00   0.0000000E+00
   0.6936410E-01   0.2808240E-01  -0.1100000E-01   0.0000000E+00   0.0000000E+00   0.0000000E+00   0.0000000E+00
   0.8342250E-01   0.3377400E-01  -0.1000000E-02   0.0000000E+00   0.0000000E+00   0.0000000E+00   0.0000000E+00
   0.6520350E-01   0.3672190E-01  -0.1100000E-01   0.0000000E+00   0.0000000E+00   0.0000000E+00   0.0000000E+00
   0.7841870E-01   0.4416460E-01  -0.1000000E-02   0.0000000E+00   0.0000000E+00   0.0000000E+00   0.0000000E+00
   0.6742230E-01   0.3246890E-01  -0.1100000E-01   0.0000000E+00   0.0000000E+00   0.0000000E+00   0.0000000E+00
   0.8108720E-01   0.3904950E-01  -0.1000000E-02   0.0000000E+00   0.0000000E+00   0.0000000E+00   0.0000000E+00
   0.6271680E-01   0.4082410E-01  -0.1100000E-01   0.0000000E+00   0.0000000E+00   0.0000000E+00   0.0000000E+00
   0.7542790E-01   0.4909810E-01  -0.1000000E-02   0.0000000E+00   0.0000000E+00   0.0000000E+00   0.0000000E+00
   0.6520350E-01   0.3672190E-01  -0.1100000E-01   0.0000000E+00   0.0000000E+00   0.0000000E+00   0.0000000E+00
   0.7841870E-01   0.4416460E-01  -0.1000000E-02   0.0000000E+00   0.0000000E+00   0.0000000E+00   0.0000000E+00
   0.5997230E-01   0.4475850E-01  -0.1100000E-01   0.0000000E+00   0.0000000E+00   0.0000000E+00   0.0000000E+00
   0.7212720E-01   0.5382990E-01  -0.1000000E-02   0.0000000E+00   0.0000000E+00   0.0000000E+00   0.0000000E+00
   0.6271680E-01   0.4082410E-01  -0.1100000E-01   0.0000000E+00   0.0000000E+00   0.0000000E+00   0.0000000E+00
   0.7542790E-01   0.4909810E-01  -0.1000000E-02   0.0000000E+00   0.0000000E+00   0.0000000E+00   0.0000000E+00
   0.5698140E-01   0.4850900E-01  -0.1100000E-01   0.0000000E+00   0.0000000E+00   0.0000000E+00   0.0000000E+00
   0.6853010E-01   0.5834060E-01  -0.1000000E-02   0.0000000E+00   0.0000000E+00   0.0000000E+00   0.0000000E+00
   0.5997230E-01   0.4475850E-01  -0.1100000E-01   0.0000000E+00   0.0000000E+00   0.0000000E+00   0.0000000E+00
   0.7212720E-01   0.5382990E-01  -0.1000000E-02   0.0000000E+00   0.0000000E+00   0.0000000E+00   0.0000000E+00
   0.5375630E-01   0.5206010E-01  -0.1100000E-01   0.0000000E+00   0.0000000E+00   0.0000000E+00   0.0000000E+00
   0.6465140E-01   0.6261140E-01  -0.1000000E-02   0.0000000E+00   0.0000000E+00   0.0000000E+00   0.0000000E+00
   0.5698140E-01   0.4850900E-01  -0.1100000E-01   0.0000000E+00   0.0000000E+00   0.0000000E+00   0.0000000E+00
   0.6853010E-01   0.5834060E-01  -0.1000000E-02   0.0000000E+00   0.0000000E+00   0.0000000E+00   0.0000000E+00
   0.5031040E-01   0.5539730E-01  -0.1100000E-01   0.0000000E+00   0.0000000E+00   0.0000000E+00   0.0000000E+00
   0.6050710E-01   0.6662500E-01  -0.1000000E-02   0.0000000E+00   0.0000000E+00   0.0000000E+00   0.0000000E+00
   0.5375630E-01   0.5206010E-01  -0.1100000E-01   0.0000000E+00   0.0000000E+00   0.0000000E+00   0.0000000E+00
   0.6465140E-01   0.6261140E-01  -0.1000000E-02   0.0000000E+00   0.0000000E+00   0.0000000E+00   0.0000000E+00
   0.4665770E-01   0.5850690E-01  -0.1100000E-01   0.0000000E+00   0.0000000E+00   0.0000000E+00   0.0000000E+00
   0.5611410E-01   0.7036480E-01  -0.1000000E-02   0.0000000E+00   0.0000000E+00   0.0000000E+00   0.0000000E+00
   0.5031040E-01   0.5539730E-01  -0.1100000E-01   0.0000000E+00   0.0000000E+00   0.0000000E+00   0.0000000E+00
   0.6050710E-01   0.6662500E-01  -0.1000000E-02   0.0000000E+00   0.0000000E+00   0.0000000E+00   0.0000000E+00
   0.4281330E-01   0.6137610E-01  -0.1100000E-01   0.0000000E+00   0.0000000E+00   0.0000000E+00   0.0000000E+00
   0.5149050E-01   0.7381550E-01  -0.1000000E-02   0.0000000E+00   0.0000000E+00   0.0000000E+00   0.0000000E+00
   0.4665770E-01   0.5850690E-01  -0.1100000E-01   0.0000000E+00   0.0000000E+00   0.0000000E+00   0.0000000E+00
   0.5611410E-01   0.7036480E-01  -0.1000000E-02   0.0000000E+00   0.0000000E+00   0.0000000E+00   0.0000000E+00
   0.3879290E-01   0.6399300E-01  -0.1100000E-01   0.0000000E+00   0.0000000E+00   0.0000000E+00   0.0000000E+00
   0.4665530E-01   0.7696290E-01  -0.1000000E-02   0.0000000E+00   0.0000000E+00   0.0000000E+00   0.0000000E+00
   0.4281330E-01   0.6137610E-01  -0.1100000E-01   0.0000000E+00   0.0000000E+00   0.0000000E+00   0.0000000E+00
   0.5149050E-01   0.7381550E-01  -0.1000000E-02   0.0000000E+00   0.0000000E+00   0.0000000E+00   0.0000000E+00
   0.3461320E-01   0.6634700E-01  -0.1100000E-01   0.0000000E+00   0.0000000E+00   0.0000000E+00   0.0000000E+00
   0.4162850E-01   0.7979390E-01  -0.1000000E-02   0.0000000E+00   0.0000000E+00   0.0000000E+00   0.0000000E+00