VARIABLES="w (rad/s)"
"abs(F   1   1)" "angle(F   1   1)"
"abs(F   1   2)" "angle(F   1   2)"
"abs(F   1   3)" "angle(F   1   3)"
Zone t="Diffraction force - beta =   0.000 deg",I=   100,F=POINT
  0.1000000E+00  0.2699922E-01 -0.1570796E+01  0.6168341E-01 -0.3141178E+01  0.8154567E-01 -0.1570796E+01
  0.3010101E+00  0.2445910E+00 -0.1570796E+01  0.5612268E+00 -0.3137860E+01  0.7387369E+00 -0.1570796E+01
  0.5020202E+00  0.6793584E+00 -0.1570796E+01  0.1573904E+01 -0.3131354E+01  0.2051864E+01 -0.1570796E+01
  0.7030303E+00  0.1335482E+01 -0.1570796E+01  0.3115431E+01 -0.3121871E+01  0.4033549E+01 -0.1570796E+01
  0.9040404E+00  0.2207181E+01 -0.1570792E+01  0.5199263E+01 -0.3109644E+01  0.6666334E+01 -0.1570792E+01
  0.1105051E+01  0.3293686E+01 -0.1570784E+01  0.7830566E+01 -0.3094907E+01  0.9947900E+01 -0.1570784E+01
  0.1306061E+01  0.4577629E+01 -0.1570763E+01  0.1101857E+02 -0.3077956E+01  0.1382578E+02 -0.1570763E+01
  0.1507071E+01  0.6068284E+01 -0.1570718E+01  0.1475529E+02 -0.3059026E+01  0.1832798E+02 -0.1570718E+01
  0.1708081E+01  0.7785025E+01 -0.1570632E+01  0.1903829E+02 -0.3038417E+01  0.2351304E+02 -0.1570632E+01
  0.1909091E+01  0.9652692E+01 -0.1570479E+01  0.2384900E+02 -0.3016373E+01  0.2915388E+02 -0.1570479E+01
  0.2110101E+01  0.1175975E+02 -0.1570226E+01  0.2917376E+02 -0.2993188E+01  0.3551777E+02 -0.1570226E+01
  0.2311111E+01  0.1402811E+02 -0.1569826E+01  0.3496272E+02 -0.2968989E+01  0.4236880E+02 -0.1569826E+01
  0.2512121E+01  0.1644374E+02 -0.1569221E+01  0.4120860E+02 -0.2944147E+01  0.4966463E+02 -0.1569221E+01
  0.2713131E+01  0.1911435E+02 -0.1568346E+01  0.4784927E+02 -0.2918747E+01  0.5773061E+02 -0.1568346E+01
  0.2914141E+01  0.2188205E+02 -0.1567105E+01  0.5483487E+02 -0.2892968E+01  0.6608981E+02 -0.1567105E+01
  0.3115151E+01  0.2477198E+02 -0.1565398E+01  0.6215456E+02 -0.2867172E+01  0.7481810E+02 -0.1565398E+01
  0.3316161E+01  0.2792156E+02 -0.1563134E+01  0.6971626E+02 -0.2841290E+01  0.8433041E+02 -0.1563134E+01
  0.3517171E+01  0.3120291E+02 -0.1560171E+01  0.7746738E+02 -0.2815475E+01  0.9424068E+02 -0.1560171E+01
  0.3718182E+01  0.3449352E+02 -0.1556333E+01  0.8538920E+02 -0.2790043E+01  0.1041792E+03 -0.1556333E+01
  0.3919192E+01  0.3791443E+02 -0.1551506E+01  0.9341072E+02 -0.2764970E+01  0.1145110E+03 -0.1551506E+01
  0.4120202E+01  0.4154137E+02 -0.1545578E+01  0.1014827E+03 -0.2740361E+01  0.1254651E+03 -0.1545578E+01
  0.4321212E+01  0.4527534E+02 -0.1538368E+01  0.1095351E+03 -0.2716214E+01  0.1367426E+03 -0.1538368E+01
  0.4522222E+01  0.4897736E+02 -0.1529643E+01  0.1175212E+03 -0.2692599E+01  0.1479232E+03 -0.1529643E+01
  0.4723232E+01  0.5258286E+02 -0.1519195E+01  0.1254408E+03 -0.2669828E+01  0.1588123E+03 -0.1519195E+01
  0.4924242E+01  0.5624736E+02 -0.1507049E+01  0.1332379E+03 -0.2647832E+01  0.1698797E+03 -0.1507048E+01
  0.5125252E+01  0.5994526E+02 -0.1493124E+01  0.1408315E+03 -0.2626391E+01  0.1810479E+03 -0.1493123E+01
  0.5326262E+01  0.6356187E+02 -0.1477251E+01  0.1481910E+03 -0.2605588E+01  0.1919705E+03 -0.1477251E+01
  0.5527273E+01  0.6698274E+02 -0.1459253E+01  0.1553071E+03 -0.2585644E+01  0.2023017E+03 -0.1459252E+01
  0.5728283E+01  0.7009146E+02 -0.1438937E+01  0.1621359E+03 -0.2566504E+01  0.2116903E+03 -0.1438936E+01
  0.5929293E+01  0.7278313E+02 -0.1416186E+01  0.1686602E+03 -0.2548215E+01  0.2198192E+03 -0.1416185E+01
  0.6130303E+01  0.7513454E+02 -0.1391385E+01  0.1748582E+03 -0.2530751E+01  0.2269207E+03 -0.1391383E+01
  0.6331313E+01  0.7707246E+02 -0.1364624E+01  0.1807057E+03 -0.2514133E+01  0.2327728E+03 -0.1364622E+01
  0.6532323E+01  0.7849102E+02 -0.1335898E+01  0.1861613E+03 -0.2498253E+01  0.2370565E+03 -0.1335896E+01
  0.6733334E+01  0.7925719E+02 -0.1305121E+01  0.1911983E+03 -0.2483051E+01  0.2393699E+03 -0.1305118E+01
  0.6934343E+01  0.7930859E+02 -0.1272572E+01  0.1958097E+03 -0.2468563E+01  0.2395247E+03 -0.1272568E+01
  0.7135354E+01  0.7861797E+02 -0.1238645E+01  0.1999863E+03 -0.2454862E+01  0.2374382E+03 -0.1238640E+01
  0.7336363E+01  0.7711143E+02 -0.1203400E+01  0.2037179E+03 -0.2441950E+01  0.2328873E+03 -0.1203394E+01
  0.7537374E+01  0.7474733E+02 -0.1166938E+01  0.2069779E+03 -0.2429756E+01  0.2257467E+03 -0.1166931E+01
  0.7738384E+01  0.7150738E+02 -0.1129541E+01  0.2097569E+03 -0.2418224E+01  0.2159610E+03 -0.1129532E+01
  0.7939394E+01  0.6738109E+02 -0.1091327E+01  0.2120489E+03 -0.2407341E+01  0.2034984E+03 -0.1091316E+01
  0.8140405E+01  0.6239151E+02 -0.1052286E+01  0.2138500E+03 -0.2397169E+01  0.1884286E+03 -0.1052272E+01
  0.8341414E+01  0.5656711E+02 -0.1012210E+01  0.2151577E+03 -0.2387767E+01  0.1708373E+03 -0.1012192E+01
  0.8542424E+01  0.4995373E+02 -0.9707661E+00  0.2159670E+03 -0.2379082E+01  0.1508633E+03 -0.9707435E+00
  0.8743435E+01  0.4261645E+02 -0.9269183E+00  0.2162668E+03 -0.2371045E+01  0.1287032E+03 -0.9268886E+00
  0.8944445E+01  0.3462005E+02 -0.8780803E+00  0.2160587E+03 -0.2363633E+01  0.1045525E+03 -0.8780369E+00
  0.9145455E+01  0.2605176E+02 -0.8181567E+00  0.2153481E+03 -0.2356886E+01  0.7867487E+02 -0.8180923E+00
  0.9346465E+01  0.1701760E+02 -0.7264511E+00  0.2141373E+03 -0.2350824E+01  0.5139048E+02 -0.7263376E+00
  0.9547475E+01  0.7794823E+01 -0.4812302E+00  0.2124217E+03 -0.2345490E+01  0.2353768E+02 -0.4809214E+00
  0.9748485E+01  0.4015779E+01  0.1460480E+01  0.2102191E+03 -0.2340920E+01  0.1213678E+02  0.1460558E+01
  0.9949495E+01  0.1319514E+02  0.2094590E+01  0.2075244E+03 -0.2337087E+01  0.3985894E+02  0.2094476E+01
  0.1015051E+02  0.2338844E+02  0.2219499E+01  0.2043507E+03 -0.2333963E+01  0.7064368E+02  0.2219418E+01
  0.1035151E+02  0.3377605E+02  0.2282433E+01  0.2007038E+03 -0.2331589E+01  0.1020153E+03  0.2282370E+01
  0.1055252E+02  0.4421981E+02  0.2325579E+01  0.1966077E+03 -0.2329977E+01  0.1335566E+03  0.2325527E+01
  0.1075354E+02  0.5462793E+02  0.2359458E+01  0.1920698E+03 -0.2329192E+01  0.1649903E+03  0.2359411E+01
  0.1095455E+02  0.6492333E+02  0.2387820E+01  0.1870851E+03 -0.2329428E+01  0.1960833E+03  0.2387778E+01
  0.1115556E+02  0.7503581E+02  0.2412532E+01  0.1816852E+03 -0.2330677E+01  0.2266239E+03  0.2412493E+01
  0.1135657E+02  0.8489500E+02  0.2434588E+01  0.1758884E+03 -0.2332998E+01  0.2563996E+03  0.2434553E+01
  0.1155758E+02  0.9444026E+02  0.2454409E+01  0.1696902E+03 -0.2336608E+01  0.2852269E+03  0.2454376E+01
  0.1175859E+02  0.1036022E+03  0.2472398E+01  0.1631114E+03 -0.2341574E+01  0.3128968E+03  0.2472366E+01
  0.1195960E+02  0.1123291E+03  0.2488815E+01  0.1561494E+03 -0.2348382E+01  0.3392525E+03  0.2488783E+01
  0.1216061E+02  0.1205608E+03  0.2503882E+01  0.1488086E+03 -0.2357348E+01  0.3641124E+03  0.2503852E+01
  0.1236162E+02  0.1282417E+03  0.2517853E+01  0.1411021E+03 -0.2369351E+01  0.3873089E+03  0.2517823E+01
  0.1256263E+02  0.1353251E+03  0.2530516E+01  0.1327836E+03 -0.2386363E+01  0.4087013E+03  0.2530487E+01
  0.1276364E+02  0.1417522E+03  0.2542105E+01  0.1235979E+03 -0.2412152E+01  0.4281112E+03  0.2542077E+01
  0.1296465E+02  0.1474886E+03  0.2552840E+01  0.1123375E+03 -0.2460019E+01  0.4454347E+03  0.2552811E+01
  0.1316566E+02  0.1524826E+03  0.2562534E+01  0.8927565E+02 -0.2623782E+01  0.4605170E+03  0.2562507E+01
  0.1336667E+02  0.1566994E+03  0.2571326E+01  0.1351204E+03 -0.1960166E+01  0.4732518E+03  0.2571299E+01
  0.1356768E+02  0.1600879E+03  0.2579183E+01  0.1076325E+03 -0.2289208E+01  0.4834852E+03  0.2579155E+01
  0.1376869E+02  0.1626484E+03  0.2586225E+01  0.9555314E+02 -0.2360182E+01  0.4912168E+03  0.2586198E+01
  0.1396970E+02  0.1643408E+03  0.2592370E+01  0.8594627E+02 -0.2404896E+01  0.4963277E+03  0.2592343E+01
  0.1417071E+02  0.1651625E+03  0.2597982E+01  0.7703677E+02 -0.2446391E+01  0.4988084E+03  0.2597954E+01
  0.1437172E+02  0.1650865E+03  0.2602533E+01  0.6875074E+02 -0.2489602E+01  0.4985791E+03  0.2602506E+01
  0.1457273E+02  0.1640872E+03  0.2606019E+01  0.6084267E+02 -0.2538800E+01  0.4955602E+03  0.2605990E+01
  0.1477374E+02  0.1621452E+03  0.2608353E+01  0.5332586E+02 -0.2598154E+01  0.4896949E+03  0.2608325E+01
  0.1497475E+02  0.1593458E+03  0.2609809E+01  0.4621463E+02 -0.2671155E+01  0.4812399E+03  0.2609780E+01
  0.1517576E+02  0.1556034E+03  0.2609538E+01  0.3962330E+02 -0.2763901E+01  0.4699376E+03  0.2609508E+01
  0.1537677E+02  0.1509417E+03  0.2607162E+01  0.3365255E+02 -0.2883491E+01  0.4558587E+03  0.2607132E+01
  0.1557778E+02  0.1453305E+03  0.2601512E+01  0.2849980E+02 -0.3040179E+01  0.4389119E+03  0.2601480E+01
  0.1577879E+02  0.1387038E+03  0.2589699E+01  0.2439980E+02  0.3039881E+01  0.4188975E+03  0.2589667E+01
  0.1597980E+02  0.1308655E+03  0.2562289E+01  0.2165472E+02  0.2789185E+01  0.3952234E+03  0.2562254E+01
  0.1618081E+02  0.1184181E+03  0.2445884E+01  0.2046615E+02  0.2509813E+01  0.3576254E+03  0.2445848E+01
  0.1638182E+02  0.1189689E+03  0.2880668E+01  0.2074913E+02  0.2239617E+01  0.3593109E+03  0.2880630E+01
  0.1658283E+02  0.1094389E+03  0.2695943E+01  0.2214887E+02  0.2008242E+01  0.3305211E+03  0.2695903E+01
  0.1678384E+02  0.9956921E+02  0.2657502E+01  0.2420098E+02  0.1824586E+01  0.3007120E+03  0.2657460E+01
  0.1698485E+02  0.8946848E+02  0.2634298E+01  0.2648390E+02  0.1682866E+01  0.2702067E+03  0.2634252E+01
  0.1718586E+02  0.7906942E+02  0.2613117E+01  0.2878232E+02  0.1572337E+01  0.2388004E+03  0.2613067E+01
  0.1738687E+02  0.6844817E+02  0.2589279E+01  0.3088437E+02  0.1484630E+01  0.2067235E+03  0.2589223E+01
  0.1758788E+02  0.5776118E+02  0.2558877E+01  0.3270741E+02  0.1412791E+01  0.1744484E+03  0.2558815E+01
  0.1778889E+02  0.4704961E+02  0.2516006E+01  0.3418978E+02  0.1351978E+01  0.1420991E+03  0.2515934E+01
  0.1798990E+02  0.3647761E+02  0.2449656E+01  0.3527319E+02  0.1298713E+01  0.1101714E+03  0.2449571E+01
  0.1819091E+02  0.2627641E+02  0.2333997E+01  0.3584615E+02  0.1250435E+01  0.7936404E+02  0.2333897E+01
  0.1839192E+02  0.1699330E+02  0.2091330E+01  0.3601811E+02  0.1205905E+01  0.5132986E+02  0.2091224E+01
  0.1859293E+02  0.1062747E+02  0.1480748E+01  0.3578080E+02  0.1162809E+01  0.3210564E+02  0.1480777E+01
  0.1879394E+02  0.1191892E+02  0.5804756E+00  0.3495870E+02  0.1116523E+01  0.3600088E+02  0.5807047E+00
  0.1899495E+02  0.1867182E+02  0.1421044E+00  0.3350813E+02  0.1061444E+01  0.5639075E+02  0.1422666E+00
  0.1919596E+02  0.2645825E+02 -0.4016745E-01  0.3045074E+02  0.9568648E+00  0.7990429E+02 -0.4005942E-01
  0.1939697E+02  0.3405798E+02 -0.1343057E+00  0.4046931E+02  0.1345780E+01  0.1028549E+03 -0.1342283E+00
  0.1959798E+02  0.4107534E+02 -0.1917536E+00  0.3225813E+02  0.1061888E+01  0.1240469E+03 -0.1916955E+00
  0.1979899E+02  0.4734498E+02 -0.2307864E+00  0.2912611E+02  0.9851499E+00  0.1429812E+03 -0.2307404E+00
  0.2000000E+02  0.5275787E+02 -0.2594390E+00  0.2631825E+02  0.9199159E+00  0.1593283E+03 -0.2594021E+00
