VARIABLES="w (rad/s)"
"abs(F   1   1)" "angle(F   1   1)"
"abs(F   1   2)" "angle(F   1   2)"
"abs(F   1   3)" "angle(F   1   3)"
Zone t="Diffraction force - beta =   0.000 deg",I=   100,F=POINT
  0.1000000E+00  0.8471986E-01 -0.1570749E+01  0.6975299E+03 -0.3667956E-07  0.2558798E+00 -0.1570823E+01
  0.3010101E+00  0.7673768E+00 -0.1570806E+01  0.6965648E+03 -0.3007372E-05  0.2317709E+01 -0.1570802E+01
  0.5020202E+00  0.2132350E+01 -0.1570798E+01  0.6946237E+03 -0.2319851E-04  0.6440352E+01 -0.1570799E+01
  0.7030303E+00  0.4181639E+01 -0.1570798E+01  0.6916843E+03 -0.8882298E-04  0.1262982E+02 -0.1570795E+01
  0.9040404E+00  0.6906166E+01 -0.1570796E+01  0.6877416E+03 -0.2414883E-03  0.2085869E+02 -0.1570795E+01
  0.1105051E+01  0.1030076E+02 -0.1570792E+01  0.6827913E+03 -0.5352179E-03  0.3111141E+02 -0.1570792E+01
  0.1306061E+01  0.1434258E+02 -0.1570786E+01  0.6768300E+03 -0.1035286E-02  0.4331886E+02 -0.1570786E+01
  0.1507071E+01  0.1903426E+02 -0.1570772E+01  0.6698765E+03 -0.1816622E-02  0.5748912E+02 -0.1570771E+01
  0.1708081E+01  0.2438739E+02 -0.1570744E+01  0.6619426E+03 -0.2962199E-02  0.7365718E+02 -0.1570744E+01
  0.1909091E+01  0.3031806E+02 -0.1570695E+01  0.6530634E+03 -0.4560933E-02  0.9156935E+02 -0.1570696E+01
  0.2110101E+01  0.3690458E+02 -0.1570614E+01  0.6432702E+03 -0.6705864E-02  0.1114625E+03 -0.1570614E+01
  0.2311111E+01  0.4405777E+02 -0.1570487E+01  0.6326349E+03 -0.9491836E-02  0.1330669E+03 -0.1570487E+01
  0.2512121E+01  0.5175123E+02 -0.1570296E+01  0.6211904E+03 -0.1301359E-01  0.1563034E+03 -0.1570296E+01
  0.2713131E+01  0.6007918E+02 -0.1570017E+01  0.6090267E+03 -0.1736459E-01  0.1814563E+03 -0.1570017E+01
  0.2914141E+01  0.6886906E+02 -0.1569623E+01  0.5962239E+03 -0.2263317E-01  0.2080041E+03 -0.1569623E+01
  0.3115151E+01  0.7813013E+02 -0.1569085E+01  0.5828240E+03 -0.2890335E-01  0.2359749E+03 -0.1569085E+01
  0.3316161E+01  0.8798263E+02 -0.1568365E+01  0.5689496E+03 -0.3625495E-01  0.2657315E+03 -0.1568365E+01
  0.3517171E+01  0.9828011E+02 -0.1567423E+01  0.5546851E+03 -0.4475753E-01  0.2968324E+03 -0.1567423E+01
  0.3718182E+01  0.1088805E+03 -0.1566214E+01  0.5400777E+03 -0.5447100E-01  0.3288484E+03 -0.1566214E+01
  0.3919192E+01  0.1198837E+03 -0.1564696E+01  0.5252267E+03 -0.6545614E-01  0.3620802E+03 -0.1564696E+01
  0.4120202E+01  0.1313425E+03 -0.1562821E+01  0.5102078E+03 -0.7776105E-01  0.3966887E+03 -0.1562821E+01
  0.4321212E+01  0.1431339E+03 -0.1560540E+01  0.4951155E+03 -0.9142193E-01  0.4323017E+03 -0.1560540E+01
  0.4522222E+01  0.1550930E+03 -0.1557804E+01  0.4800168E+03 -0.1064705E+00  0.4684198E+03 -0.1557804E+01
  0.4723232E+01  0.1671265E+03 -0.1554567E+01  0.4649178E+03 -0.1229282E+00  0.5047632E+03 -0.1554567E+01
  0.4924242E+01  0.1793602E+03 -0.1550817E+01  0.4498902E+03 -0.1408256E+00  0.5417120E+03 -0.1550817E+01
  0.5125252E+01  0.1917365E+03 -0.1546534E+01  0.4350383E+03 -0.1601854E+00  0.5790903E+03 -0.1546534E+01
  0.5326262E+01  0.2041051E+03 -0.1541703E+01  0.4203967E+03 -0.1810118E+00  0.6164456E+03 -0.1541703E+01
  0.5527273E+01  0.2163145E+03 -0.1536321E+01  0.4059640E+03 -0.2032952E+00  0.6533197E+03 -0.1536321E+01
  0.5728283E+01  0.2282076E+03 -0.1530403E+01  0.3917881E+03 -0.2270344E+00  0.6892386E+03 -0.1530403E+01
  0.5929293E+01  0.2396366E+03 -0.1524007E+01  0.3778804E+03 -0.2522394E+00  0.7237560E+03 -0.1524007E+01
  0.6130303E+01  0.2506371E+03 -0.1517276E+01  0.3642625E+03 -0.2789294E+00  0.7569780E+03 -0.1517276E+01
  0.6331313E+01  0.2610919E+03 -0.1510329E+01  0.3509499E+03 -0.3070998E+00  0.7885530E+03 -0.1510329E+01
  0.6532323E+01  0.2708520E+03 -0.1503297E+01  0.3379824E+03 -0.3367378E+00  0.8180297E+03 -0.1503297E+01
  0.6733334E+01  0.2797416E+03 -0.1496338E+01  0.3253836E+03 -0.3678344E+00  0.8448762E+03 -0.1496338E+01
  0.6934343E+01  0.2876624E+03 -0.1489700E+01  0.3131476E+03 -0.4003955E+00  0.8687970E+03 -0.1489700E+01
  0.7135354E+01  0.2945585E+03 -0.1483655E+01  0.3012638E+03 -0.4344074E+00  0.8896235E+03 -0.1483655E+01
  0.7336363E+01  0.3003312E+03 -0.1478442E+01  0.2897289E+03 -0.4698788E+00  0.9070569E+03 -0.1478442E+01
  0.7537374E+01  0.3049211E+03 -0.1474315E+01  0.2785616E+03 -0.5067773E+00  0.9209185E+03 -0.1474316E+01
  0.7738384E+01  0.3083073E+03 -0.1471580E+01  0.2677678E+03 -0.5451102E+00  0.9311425E+03 -0.1471579E+01
  0.7939394E+01  0.3104810E+03 -0.1470514E+01  0.2573452E+03 -0.5848772E+00  0.9377084E+03 -0.1470514E+01
  0.8140405E+01  0.3114782E+03 -0.1471362E+01  0.2472737E+03 -0.6260700E+00  0.9407171E+03 -0.1471362E+01
  0.8341414E+01  0.3113427E+03 -0.1474354E+01  0.2375339E+03 -0.6686891E+00  0.9403074E+03 -0.1474354E+01
  0.8542424E+01  0.3101494E+03 -0.1479723E+01  0.2281297E+03 -0.7127444E+00  0.9367020E+03 -0.1479723E+01
  0.8743435E+01  0.3079886E+03 -0.1487636E+01  0.2190684E+03 -0.7582069E+00  0.9301749E+03 -0.1487637E+01
  0.8944445E+01  0.3049492E+03 -0.1498230E+01  0.2103474E+03 -0.8050762E+00  0.9209932E+03 -0.1498230E+01
  0.9145455E+01  0.3011393E+03 -0.1511626E+01  0.2019483E+03 -0.8533751E+00  0.9094869E+03 -0.1511626E+01
  0.9346465E+01  0.2966592E+03 -0.1527901E+01  0.1938602E+03 -0.9031016E+00  0.8959540E+03 -0.1527901E+01
  0.9547475E+01  0.2916214E+03 -0.1547100E+01  0.1860648E+03 -0.9542260E+00  0.8807381E+03 -0.1547100E+01
  0.9748485E+01  0.2861226E+03 -0.1569251E+01  0.1785500E+03 -0.1006835E+01  0.8641288E+03 -0.1569251E+01
  0.9949495E+01  0.2802545E+03 -0.1594347E+01  0.1713133E+03 -0.1060869E+01  0.8464060E+03 -0.1594347E+01
  0.1015051E+02  0.2741007E+03 -0.1622370E+01  0.1643554E+03 -0.1116352E+01  0.8278210E+03 -0.1622370E+01
  0.1035151E+02  0.2677380E+03 -0.1653277E+01  0.1576617E+03 -0.1173273E+01  0.8086005E+03 -0.1653277E+01
  0.1055252E+02  0.2612308E+03 -0.1687033E+01  0.1512306E+03 -0.1231707E+01  0.7889501E+03 -0.1687033E+01
  0.1075354E+02  0.2546415E+03 -0.1723579E+01  0.1450456E+03 -0.1291656E+01  0.7690463E+03 -0.1723579E+01
  0.1095455E+02  0.2480131E+03 -0.1762837E+01  0.1390635E+03 -0.1353134E+01  0.7490272E+03 -0.1762837E+01
  0.1115556E+02  0.2413910E+03 -0.1804755E+01  0.1332957E+03 -0.1416246E+01  0.7290274E+03 -0.1804754E+01
  0.1135657E+02  0.2348151E+03 -0.1849264E+01  0.1277374E+03 -0.1481039E+01  0.7091654E+03 -0.1849264E+01
  0.1155758E+02  0.2283020E+03 -0.1896290E+01  0.1223491E+03 -0.1547561E+01  0.6894966E+03 -0.1896289E+01
  0.1175859E+02  0.2218797E+03 -0.1945743E+01  0.1171301E+03 -0.1615875E+01  0.6700987E+03 -0.1945743E+01
  0.1195960E+02  0.2155646E+03 -0.1997591E+01  0.1120205E+03 -0.1686340E+01  0.6510241E+03 -0.1997592E+01
  0.1216061E+02  0.2093762E+03 -0.2051767E+01  0.1069960E+03 -0.1759225E+01  0.6323344E+03 -0.2051767E+01
  0.1236162E+02  0.2033416E+03 -0.2108209E+01  0.1020060E+03 -0.1835504E+01  0.6141088E+03 -0.2108209E+01
  0.1256263E+02  0.1974295E+03 -0.2166863E+01  0.9673425E+02 -0.1916314E+01  0.5962533E+03 -0.2166863E+01
  0.1276364E+02  0.1916624E+03 -0.2227647E+01  0.9081509E+02 -0.2005413E+01  0.5788365E+03 -0.2227646E+01
  0.1296465E+02  0.1860668E+03 -0.2290560E+01  0.8274020E+02 -0.2115307E+01  0.5619359E+03 -0.2290558E+01
  0.1316566E+02  0.1806095E+03 -0.2355524E+01  0.6111867E+02 -0.2333439E+01  0.5454547E+03 -0.2355523E+01
  0.1336667E+02  0.1753050E+03 -0.2422523E+01  0.1273769E+03 -0.1764021E+01  0.5294340E+03 -0.2422523E+01
  0.1356768E+02  0.1701378E+03 -0.2491457E+01  0.9627967E+02 -0.2141308E+01  0.5138275E+03 -0.2491458E+01
  0.1376869E+02  0.1651312E+03 -0.2562447E+01  0.8782835E+02 -0.2268646E+01  0.4987071E+03 -0.2562446E+01
  0.1396970E+02  0.1602664E+03 -0.2635435E+01  0.8266574E+02 -0.2368284E+01  0.4840153E+03 -0.2635433E+01
  0.1417071E+02  0.1556027E+03 -0.2710303E+01  0.7845284E+02 -0.2461354E+01  0.4699292E+03 -0.2710301E+01
  0.1437172E+02  0.1510608E+03 -0.2787246E+01  0.7493755E+02 -0.2551214E+01  0.4562128E+03 -0.2787244E+01
  0.1457273E+02  0.1466358E+03 -0.2866218E+01  0.7176249E+02 -0.2640168E+01  0.4428475E+03 -0.2866217E+01
  0.1477374E+02  0.1423131E+03 -0.2947239E+01  0.6885173E+02 -0.2729550E+01  0.4297929E+03 -0.2947237E+01
  0.1497475E+02  0.1381935E+03 -0.3030446E+01  0.6611735E+02 -0.2819206E+01  0.4173508E+03 -0.3030444E+01
  0.1517576E+02  0.1341372E+03 -0.3116140E+01  0.6356039E+02 -0.2909624E+01  0.4051005E+03 -0.3116141E+01
  0.1537677E+02  0.1301539E+03  0.3078403E+01  0.6112960E+02 -0.3000611E+01  0.3930706E+03  0.3078404E+01
  0.1557778E+02  0.1261742E+03  0.2985754E+01  0.5882508E+02 -0.3092524E+01  0.3810508E+03  0.2985754E+01
  0.1577879E+02  0.1220699E+03  0.2886215E+01  0.5661591E+02  0.3097820E+01  0.3686542E+03  0.2886216E+01
  0.1597980E+02  0.1175343E+03  0.2770032E+01  0.5450145E+02  0.3004020E+01  0.3549542E+03  0.2770032E+01
  0.1618081E+02  0.1085971E+03  0.2562606E+01  0.5247056E+02  0.2909148E+01  0.3279557E+03  0.2562607E+01
  0.1638182E+02  0.1178898E+03  0.2917496E+01  0.5051387E+02  0.2813472E+01  0.3560483E+03  0.2917497E+01
  0.1658283E+02  0.1125861E+03  0.2640602E+01  0.4862985E+02  0.2716318E+01  0.3400196E+03  0.2640602E+01
  0.1678384E+02  0.1088983E+03  0.2513711E+01  0.4681572E+02  0.2617552E+01  0.3288797E+03  0.2513712E+01
  0.1698485E+02  0.1056821E+03  0.2403814E+01  0.4505479E+02  0.2517787E+01  0.3191657E+03  0.2403814E+01
  0.1718586E+02  0.1026730E+03  0.2298355E+01  0.4336958E+02  0.2415903E+01  0.3100774E+03  0.2298355E+01
  0.1738687E+02  0.9981508E+02  0.2194182E+01  0.4174014E+02  0.2312713E+01  0.3014456E+03  0.2194183E+01
  0.1758788E+02  0.9713429E+02  0.2090379E+01  0.4017359E+02  0.2207583E+01  0.2933494E+03  0.2090380E+01
  0.1778889E+02  0.9454902E+02  0.1986006E+01  0.3866886E+02  0.2100247E+01  0.2855419E+03  0.1986006E+01
  0.1798990E+02  0.9205949E+02  0.1880849E+01  0.3720968E+02  0.1990806E+01  0.2780229E+03  0.1880849E+01
  0.1819091E+02  0.8964336E+02  0.1774825E+01  0.3572145E+02  0.1880464E+01  0.2707264E+03  0.1774825E+01
  0.1839192E+02  0.8729861E+02  0.1667759E+01  0.3430809E+02  0.1767458E+01  0.2636451E+03  0.1667759E+01
  0.1859293E+02  0.8502805E+02  0.1559556E+01  0.3295010E+02  0.1651087E+01  0.2567874E+03  0.1559556E+01
  0.1879394E+02  0.8281436E+02  0.1450155E+01  0.3143922E+02  0.1530101E+01  0.2501023E+03  0.1450155E+01
  0.1899495E+02  0.8066412E+02  0.1339599E+01  0.2969207E+02  0.1398929E+01  0.2436078E+03  0.1339599E+01
  0.1919596E+02  0.7857487E+02  0.1227646E+01  0.2648974E+02  0.1221499E+01  0.2372984E+03  0.1227646E+01
  0.1939697E+02  0.7654455E+02  0.1114154E+01  0.3958568E+02  0.1487703E+01  0.2311667E+03  0.1114155E+01
  0.1959798E+02  0.7455590E+02  0.9993656E+00  0.3086726E+02  0.1149663E+01  0.2251606E+03  0.9993668E+00
  0.1979899E+02  0.7261818E+02  0.8831943E+00  0.2881360E+02  0.1001709E+01  0.2193088E+03  0.8831964E+00
  0.2000000E+02  0.7073413E+02  0.7656950E+00  0.2744869E+02  0.8676119E+00  0.2136187E+03  0.7656959E+00
