VARIABLES="w (rad/s)"
"abs(F   1   1)" "angle(F   1   1)"
"abs(F   1   2)" "angle(F   1   2)"
"abs(F   1   3)" "angle(F   1   3)"
Zone t="FKforce - beta =   0.000",I=   100,F=POINT
  0.1000000E+00  0.5772064E-01 -0.1570727E+01  0.6975916E+03 -0.1757474E-11  0.1743341E+00 -0.1570835E+01
  0.3010101E+00  0.5227858E+00 -0.1570811E+01  0.6971260E+03 -0.3465109E-11  0.1578972E+01 -0.1570805E+01
  0.5020202E+00  0.1452992E+01 -0.1570799E+01  0.6961975E+03 -0.1312645E-10  0.4388489E+01 -0.1570800E+01
  0.7030303E+00  0.2846157E+01 -0.1570799E+01  0.6947991E+03  0.4054770E-10  0.8596268E+01 -0.1570795E+01
  0.9040404E+00  0.4698985E+01 -0.1570798E+01  0.6929382E+03 -0.4267263E-10  0.1419236E+02 -0.1570796E+01
  0.1105051E+01  0.7007076E+01 -0.1570796E+01  0.6906132E+03 -0.1705909E-09  0.2116351E+02 -0.1570796E+01
  0.1306061E+01  0.9764950E+01 -0.1570797E+01  0.6878259E+03 -0.9207262E-10  0.2949308E+02 -0.1570797E+01
  0.1507071E+01  0.1296598E+02 -0.1570797E+01  0.6845804E+03 -0.2700450E-09  0.3916114E+02 -0.1570796E+01
  0.1708081E+01  0.1660237E+02 -0.1570796E+01  0.6808768E+03 -0.1928638E-09  0.5014414E+02 -0.1570797E+01
  0.1909091E+01  0.2066537E+02 -0.1570796E+01  0.6767189E+03 -0.2036824E-09  0.6241547E+02 -0.1570797E+01
  0.2110101E+01  0.2514483E+02 -0.1570796E+01  0.6721088E+03 -0.3672032E-09  0.7594470E+02 -0.1570796E+01
  0.2311111E+01  0.3002966E+02 -0.1570796E+01  0.6670497E+03  0.1563724E-09  0.9069813E+02 -0.1570796E+01
  0.2512121E+01  0.3530750E+02 -0.1570796E+01  0.6615457E+03 -0.2252477E-10  0.1066388E+03 -0.1570796E+01
  0.2713131E+01  0.4096487E+02 -0.1570796E+01  0.6556010E+03 -0.7671041E-10  0.1237258E+03 -0.1570796E+01
  0.2914141E+01  0.4698711E+02 -0.1570796E+01  0.6492200E+03  0.4016671E-10  0.1419146E+03 -0.1570796E+01
  0.3115151E+01  0.5335839E+02 -0.1570796E+01  0.6424094E+03 -0.6378829E-09  0.1611575E+03 -0.1570796E+01
  0.3316161E+01  0.6006163E+02 -0.1570796E+01  0.6351720E+03 -0.1419333E-08  0.1814028E+03 -0.1570796E+01
  0.3517171E+01  0.6707840E+02 -0.1570796E+01  0.6275140E+03 -0.6708341E-09  0.2025954E+03 -0.1570796E+01
  0.3718182E+01  0.7438945E+02 -0.1570796E+01  0.6194435E+03 -0.1575650E-08  0.2246766E+03 -0.1570796E+01
  0.3919192E+01  0.8197411E+02 -0.1570796E+01  0.6109657E+03  0.1829214E-10  0.2475838E+03 -0.1570796E+01
  0.4120202E+01  0.8981019E+02 -0.1570796E+01  0.6020890E+03 -0.7919712E-09  0.2712509E+03 -0.1570796E+01
  0.4321212E+01  0.9787483E+02 -0.1570796E+01  0.5928215E+03 -0.6975240E-09  0.2956083E+03 -0.1570796E+01
  0.4522222E+01  0.1061440E+03 -0.1570796E+01  0.5831717E+03 -0.3091783E-08  0.3205823E+03 -0.1570796E+01
  0.4723232E+01  0.1145916E+03 -0.1570796E+01  0.5731481E+03 -0.1943410E-08  0.3460958E+03 -0.1570796E+01
  0.4924242E+01  0.1231913E+03 -0.1570796E+01  0.5627600E+03 -0.2224212E-08  0.3720692E+03 -0.1570796E+01
  0.5125252E+01  0.1319155E+03 -0.1570796E+01  0.5520195E+03 -0.2712887E-08  0.3984179E+03 -0.1570796E+01
  0.5326262E+01  0.1407348E+03 -0.1570796E+01  0.5409364E+03 -0.1473763E-08  0.4250535E+03 -0.1570796E+01
  0.5527273E+01  0.1496195E+03 -0.1570796E+01  0.5295217E+03  0.1983926E-08  0.4518871E+03 -0.1570796E+01
  0.5728283E+01  0.1585384E+03 -0.1570796E+01  0.5177894E+03 -0.1194304E-08  0.4788238E+03 -0.1570796E+01
  0.5929293E+01  0.1674594E+03 -0.1570796E+01  0.5057516E+03 -0.7365850E-10  0.5057669E+03 -0.1570796E+01
  0.6130303E+01  0.1763497E+03 -0.1570796E+01  0.4934219E+03  0.3623956E-08  0.5326157E+03 -0.1570796E+01
  0.6331313E+01  0.1851745E+03 -0.1570796E+01  0.4808156E+03 -0.2711750E-08  0.5592689E+03 -0.1570796E+01
  0.6532323E+01  0.1938997E+03 -0.1570796E+01  0.4679476E+03 -0.1417043E-08  0.5856205E+03 -0.1570796E+01
  0.6733334E+01  0.2024900E+03 -0.1570796E+01  0.4548341E+03  0.1965705E-09  0.6115638E+03 -0.1570796E+01
  0.6934343E+01  0.2109091E+03 -0.1570796E+01  0.4414906E+03  0.4809650E-08  0.6369900E+03 -0.1570796E+01
  0.7135354E+01  0.2191199E+03 -0.1570796E+01  0.4279363E+03 -0.4108875E-08  0.6617878E+03 -0.1570796E+01
  0.7336363E+01  0.2270858E+03 -0.1570796E+01  0.4141880E+03 -0.2158608E-08  0.6858461E+03 -0.1570796E+01
  0.7537374E+01  0.2347690E+03 -0.1570796E+01  0.4002662E+03 -0.4690744E-08  0.7090504E+03 -0.1570796E+01
  0.7738384E+01  0.2421329E+03 -0.1570796E+01  0.3861899E+03 -0.4823133E-08  0.7312886E+03 -0.1570796E+01
  0.7939394E+01  0.2491380E+03 -0.1570796E+01  0.3719800E+03 -0.7350833E-08  0.7524465E+03 -0.1570796E+01
  0.8140405E+01  0.2557490E+03 -0.1570796E+01  0.3576570E+03 -0.2708112E-09  0.7724105E+03 -0.1570796E+01
  0.8341414E+01  0.2619267E+03 -0.1570796E+01  0.3432437E+03  0.1888456E-08  0.7910686E+03 -0.1570796E+01
  0.8542424E+01  0.2676363E+03 -0.1570796E+01  0.3287627E+03 -0.3512686E-08  0.8083117E+03 -0.1570796E+01
  0.8743435E+01  0.2728408E+03 -0.1570796E+01  0.3142368E+03 -0.1240037E-07  0.8240293E+03 -0.1570796E+01
  0.8944445E+01  0.2775060E+03 -0.1570796E+01  0.2996913E+03  0.3753989E-08  0.8381177E+03 -0.1570796E+01
  0.9145455E+01  0.2815974E+03 -0.1570796E+01  0.2851490E+03  0.7577330E-08  0.8504749E+03 -0.1570796E+01
  0.9346465E+01  0.2850829E+03 -0.1570796E+01  0.2706364E+03 -0.3826650E-08  0.8609996E+03 -0.1570796E+01
  0.9547475E+01  0.2879315E+03 -0.1570796E+01  0.2561786E+03 -0.2035848E-09  0.8696024E+03 -0.1570796E+01
  0.9748485E+01  0.2901136E+03 -0.1570796E+01  0.2418014E+03 -0.4313793E-08  0.8761909E+03 -0.1570796E+01
  0.9949495E+01  0.2916028E+03 -0.1570796E+01  0.2275318E+03 -0.7596895E-08  0.8806885E+03 -0.1570796E+01
  0.1015051E+02  0.2923738E+03 -0.1570796E+01  0.2133959E+03  0.7960474E-08  0.8830175E+03 -0.1570796E+01
  0.1035151E+02  0.2924062E+03 -0.1570796E+01  0.1994209E+03 -0.9116104E-08  0.8831114E+03 -0.1570796E+01
  0.1055252E+02  0.2916787E+03 -0.1570796E+01  0.1856340E+03  0.1099723E-07  0.8809165E+03 -0.1570796E+01
  0.1075354E+02  0.2901768E+03 -0.1570796E+01  0.1720618E+03 -0.2195400E-07  0.8763779E+03 -0.1570796E+01
  0.1095455E+02  0.2878870E+03 -0.1570796E+01  0.1587317E+03  0.1614674E-07  0.8694620E+03 -0.1570796E+01
  0.1115556E+02  0.2848012E+03 -0.1570796E+01  0.1456701E+03 -0.5063548E-08  0.8601426E+03 -0.1570796E+01
  0.1135657E+02  0.2809139E+03 -0.1570796E+01  0.1329037E+03 -0.8633239E-08  0.8484004E+03 -0.1570796E+01
  0.1155758E+02  0.2762239E+03 -0.1570796E+01  0.1204586E+03  0.1113332E-08  0.8342379E+03 -0.1570796E+01
  0.1175859E+02  0.2707352E+03 -0.1570796E+01  0.1083604E+03 -0.8388401E-08  0.8176599E+03 -0.1570796E+01
  0.1195960E+02  0.2644560E+03 -0.1570796E+01  0.9663384E+02  0.2035470E-07  0.7986943E+03 -0.1570796E+01
  0.1216061E+02  0.2573985E+03 -0.1570796E+01  0.8530289E+02 -0.6987412E-08  0.7773795E+03 -0.1570796E+01
  0.1236162E+02  0.2495805E+03 -0.1570796E+01  0.7439071E+02  0.4607117E-08  0.7537684E+03 -0.1570796E+01
  0.1256263E+02  0.2410255E+03 -0.1570796E+01  0.6391933E+02 -0.2436151E-07  0.7279312E+03 -0.1570796E+01
  0.1276364E+02  0.2317605E+03 -0.1570796E+01  0.5390925E+02  0.2902325E-08  0.6999506E+03 -0.1570796E+01
  0.1296465E+02  0.2218191E+03 -0.1570796E+01  0.4437996E+02 -0.5707976E-08  0.6699263E+03 -0.1570796E+01
  0.1316566E+02  0.2112398E+03 -0.1570796E+01  0.3534916E+02 -0.5859436E-07  0.6379757E+03 -0.1570796E+01
  0.1336667E+02  0.2000660E+03 -0.1570796E+01  0.2683292E+02 -0.6122529E-07  0.6042291E+03 -0.1570796E+01
  0.1356768E+02  0.1883465E+03 -0.1570796E+01  0.1884554E+02  0.1976748E-09  0.5688349E+03 -0.1570796E+01
  0.1376869E+02  0.1761351E+03 -0.1570796E+01  0.1139914E+02  0.6209284E-08  0.5319553E+03 -0.1570796E+01
  0.1396970E+02  0.1634903E+03 -0.1570796E+01  0.4503800E+01  0.1629473E-06  0.4937678E+03 -0.1570796E+01
  0.1417071E+02  0.1504755E+03 -0.1570796E+01  0.1832581E+01 -0.3141593E+01  0.4544616E+03 -0.1570796E+01
  0.1437172E+02  0.1371585E+03 -0.1570796E+01  0.7604465E+01  0.3141593E+01  0.4142435E+03 -0.1570796E+01
  0.1457273E+02  0.1236107E+03 -0.1570796E+01  0.1280894E+02 -0.3141593E+01  0.3733279E+03 -0.1570796E+01
  0.1477374E+02  0.1099079E+03 -0.1570796E+01  0.1744566E+02  0.3141593E+01  0.3319441E+03 -0.1570796E+01
  0.1497475E+02  0.9612788E+02 -0.1570796E+01  0.2151678E+02  0.3141593E+01  0.2903276E+03 -0.1570796E+01
  0.1517576E+02  0.8235215E+02 -0.1570796E+01  0.2502739E+02  0.3141593E+01  0.2487234E+03 -0.1570796E+01
  0.1537677E+02  0.6866338E+02 -0.1570796E+01  0.2798525E+02 -0.3141593E+01  0.2073827E+03 -0.1570796E+01
  0.1557778E+02  0.5514631E+02 -0.1570796E+01  0.3040091E+02 -0.3141593E+01  0.1665603E+03 -0.1570796E+01
  0.1577879E+02  0.4188628E+02 -0.1570796E+01  0.3228798E+02  0.3141593E+01  0.1265140E+03 -0.1570796E+01
  0.1597980E+02  0.2896796E+02 -0.1570796E+01  0.3366259E+02  0.3141593E+01  0.8749985E+02 -0.1570796E+01
  0.1618081E+02  0.1647596E+02 -0.1570797E+01  0.3454370E+02 -0.3141593E+01  0.4977328E+02 -0.1570796E+01
  0.1638182E+02  0.4492768E+01 -0.1570796E+01  0.3495321E+02 -0.3141593E+01  0.1358319E+02 -0.1570798E+01
  0.1658283E+02  0.6901563E+01  0.1570796E+01  0.3491532E+02  0.3141593E+01  0.2082843E+02  0.1570796E+01
  0.1678384E+02  0.1763047E+02  0.1570797E+01  0.3445702E+02 -0.3141593E+01  0.5323045E+02  0.1570796E+01
  0.1698485E+02  0.2762159E+02  0.1570796E+01  0.3360740E+02 -0.3141593E+01  0.8340436E+02  0.1570796E+01
  0.1718586E+02  0.3680799E+02  0.1570796E+01  0.3239790E+02 -0.3141593E+01  0.1111482E+03  0.1570796E+01
  0.1738687E+02  0.4512860E+02  0.1570796E+01  0.3086180E+02  0.3141593E+01  0.1362765E+03  0.1570796E+01
  0.1758788E+02  0.5252954E+02  0.1570796E+01  0.2903430E+02 -0.3141593E+01  0.1586281E+03  0.1570796E+01
  0.1778889E+02  0.5896439E+02  0.1570796E+01  0.2695185E+02  0.3141593E+01  0.1780623E+03  0.1570796E+01
  0.1798990E+02  0.6439606E+02  0.1570796E+01  0.2465223E+02 -0.3141593E+01  0.1944663E+03  0.1570796E+01
  0.1819091E+02  0.6879594E+02  0.1570796E+01  0.2217413E+02  0.3141593E+01  0.2077550E+03  0.1570796E+01
  0.1839192E+02  0.7214594E+02  0.1570796E+01  0.1955667E+02 -0.3141593E+01  0.2178726E+03  0.1570796E+01
  0.1859293E+02  0.7443826E+02  0.1570796E+01  0.1683924E+02  0.3141593E+01  0.2247955E+03  0.1570796E+01
  0.1879394E+02  0.7567584E+02  0.1570796E+01  0.1406113E+02 -0.3141593E+01  0.2285339E+03  0.1570796E+01
  0.1899495E+02  0.7587344E+02  0.1570796E+01  0.1126096E+02  0.3141593E+01  0.2291306E+03  0.1570796E+01
  0.1919596E+02  0.7505640E+02  0.1570796E+01  0.8476458E+01 -0.3141593E+01  0.2266639E+03  0.1570796E+01
  0.1939697E+02  0.7326210E+02  0.1570796E+01  0.5744095E+01 -0.3141593E+01  0.2212456E+03  0.1570796E+01
  0.1959798E+02  0.7053922E+02  0.1570796E+01  0.3098574E+01  0.3141593E+01  0.2130229E+03  0.1570796E+01
  0.1979899E+02  0.6694700E+02  0.1570796E+01  0.5725299E+00 -0.3141590E+01  0.2021752E+03  0.1570796E+01
  0.2000000E+02  0.6255587E+02  0.1570796E+01  0.1803810E+01 -0.5392844E-06  0.1889142E+03  0.1570796E+01
