 VARIABLES="Time (s)"
"AddedMass    1" "IRF    1"
"AddedMass    2" "IRF    2"
"AddedMass    3" "IRF    3"
Zone t="DoF    1",I=   800,F=POINT
  0.0000000E+00  0.1655134E+01  0.1401673E+03 -0.2617116E-07 -0.7822759E-06  0.4999174E+01  0.4233181E+03
  0.1000000E-01  0.1655134E+01  0.1389039E+03 -0.2617116E-07 -0.7733992E-06  0.4999174E+01  0.4195025E+03
  0.2000000E-01  0.1655134E+01  0.1351427E+03 -0.2617116E-07 -0.7470097E-06  0.4999174E+01  0.4081435E+03
  0.3000000E-01  0.1655134E+01  0.1289705E+03 -0.2617116E-07 -0.7038223E-06  0.4999174E+01  0.3895031E+03
  0.4000000E-01  0.1655134E+01  0.1205291E+03 -0.2617116E-07 -0.6450193E-06  0.4999174E+01  0.3640092E+03
  0.5000000E-01  0.1655134E+01  0.1100116E+03 -0.2617116E-07 -0.5722282E-06  0.4999174E+01  0.3322458E+03
  0.6000000E-01  0.1655134E+01  0.9765751E+02 -0.2617116E-07 -0.4874924E-06  0.4999174E+01  0.2949356E+03
  0.7000000E-01  0.1655134E+01  0.8374595E+02 -0.2617116E-07 -0.3932381E-06  0.4999174E+01  0.2529219E+03
  0.8000000E-01  0.1655134E+01  0.6858852E+02 -0.2617116E-07 -0.2922323E-06  0.4999174E+01  0.2071452E+03
  0.9000000E-01  0.1655134E+01  0.5252085E+02 -0.2617116E-07 -0.1875340E-06  0.4999174E+01  0.1586198E+03
  0.9999999E-01  0.1655134E+01  0.3589400E+02 -0.2617116E-07 -0.8243421E-07  0.4999174E+01  0.1084055E+03
  0.1100000E+00  0.1655134E+01  0.1906527E+02 -0.2617116E-07  0.1960223E-07  0.4999174E+01  0.5758143E+02
  0.1200000E+00  0.1655134E+01  0.2389062E+01 -0.2617116E-07  0.1150080E-06  0.4999174E+01  0.7217969E+01
  0.1300000E+00  0.1655134E+01 -0.1379208E+02 -0.2617116E-07  0.2001842E-06  0.4999174E+01 -0.4165030E+02
  0.1400000E+00  0.1655134E+01 -0.2915586E+02 -0.2617116E-07  0.2715801E-06  0.4999174E+01 -0.8805019E+02
  0.1500000E+00  0.1655134E+01 -0.4340805E+02 -0.2617116E-07  0.3257695E-06  0.4999174E+01 -0.1310930E+03
  0.1600000E+00  0.1655134E+01 -0.5628934E+02 -0.2617116E-07  0.3595323E-06  0.4999174E+01 -0.1699957E+03
  0.1700000E+00  0.1655134E+01 -0.6758105E+02 -0.2617116E-07  0.3699371E-06  0.4999174E+01 -0.2040977E+03
  0.1800000E+00  0.1655134E+01 -0.7710963E+02 -0.2617116E-07  0.3544175E-06  0.4999174E+01 -0.2328750E+03
  0.1900000E+00  0.1655134E+01 -0.8474987E+02 -0.2617116E-07  0.3108497E-06  0.4999174E+01 -0.2559495E+03
  0.2000000E+00  0.1655134E+01 -0.9042655E+02 -0.2617116E-07  0.2376210E-06  0.4999174E+01 -0.2730939E+03
  0.2100000E+00  0.1655134E+01 -0.9411484E+02 -0.2617116E-07  0.1336909E-06  0.4999174E+01 -0.2842332E+03
  0.2200000E+00  0.1655134E+01 -0.9583910E+02 -0.2617116E-07 -0.1348773E-08  0.4999174E+01 -0.2894411E+03
  0.2300000E+00  0.1655134E+01 -0.9567051E+02 -0.2617116E-07 -0.1672412E-06  0.4999174E+01 -0.2889325E+03
  0.2400000E+00  0.1655134E+01 -0.9372329E+02 -0.2617116E-07 -0.3630298E-06  0.4999174E+01 -0.2830522E+03
  0.2500000E+00  0.1655134E+01 -0.9014988E+02 -0.2617116E-07 -0.5870379E-06  0.4999174E+01 -0.2722607E+03
  0.2600000E+00  0.1655134E+01 -0.8513536E+02 -0.2617116E-07 -0.8368780E-06  0.4999174E+01 -0.2571171E+03
  0.2700000E+00  0.1655134E+01 -0.7889091E+02 -0.2617116E-07 -0.1109462E-05  0.4999174E+01 -0.2382589E+03
  0.2800000E+00  0.1655134E+01 -0.7164674E+02 -0.2617116E-07 -0.1401035E-05  0.4999174E+01 -0.2163814E+03
  0.2900000E+00  0.1655134E+01 -0.6364503E+02 -0.2617116E-07 -0.1707222E-05  0.4999174E+01 -0.1922161E+03
  0.3000000E+00  0.1655134E+01 -0.5513234E+02 -0.2617116E-07 -0.2023104E-05  0.4999174E+01 -0.1665074E+03
  0.3100000E+00  0.1655134E+01 -0.4635265E+02 -0.2617116E-07 -0.2343291E-05  0.4999174E+01 -0.1399925E+03
  0.3200000E+00  0.1655134E+01 -0.3754053E+02 -0.2617116E-07 -0.2662022E-05  0.4999174E+01 -0.1133795E+03
  0.3300000E+00  0.1655134E+01 -0.2891486E+02 -0.2617116E-07 -0.2973282E-05  0.4999174E+01 -0.8732959E+02
  0.3400000E+00  0.1655134E+01 -0.2067328E+02 -0.2617116E-07 -0.3270912E-05  0.4999174E+01 -0.6243953E+02
  0.3500000E+00  0.1655134E+01 -0.1298782E+02 -0.2617116E-07 -0.3548747E-05  0.4999174E+01 -0.3922901E+02
  0.3600000E+00  0.1655134E+01 -0.6001133E+01 -0.2617116E-07 -0.3800753E-05  0.4999174E+01 -0.1812870E+02
  0.3700000E+00  0.1655134E+01  0.1760629E+00 -0.2617116E-07 -0.4021163E-05  0.4999174E+01  0.5269697E+00
  0.3800000E+00  0.1655134E+01  0.5466195E+01 -0.2617116E-07 -0.4204603E-05  0.4999174E+01  0.1650371E+02
  0.3900000E+00  0.1655134E+01  0.9825318E+01 -0.2617116E-07 -0.4346245E-05  0.4999174E+01  0.2966878E+02
  0.4000000E+00  0.1655134E+01  0.1324219E+02 -0.2617116E-07 -0.4441909E-05  0.4999174E+01  0.3998819E+02
  0.4100000E+00  0.1655134E+01  0.1573654E+02 -0.2617116E-07 -0.4488196E-05  0.4999174E+01  0.4752157E+02
  0.4200000E+00  0.1655134E+01  0.1735626E+02 -0.2617116E-07 -0.4482565E-05  0.4999174E+01  0.5241362E+02
  0.4300000E+00  0.1655134E+01  0.1817402E+02 -0.2617116E-07 -0.4423428E-05  0.4999174E+01  0.5488368E+02
  0.4400000E+00  0.1655134E+01  0.1828304E+02 -0.2617116E-07 -0.4310196E-05  0.4999174E+01  0.5521333E+02
  0.4500000E+00  0.1655134E+01  0.1779246E+02 -0.2617116E-07 -0.4143326E-05  0.4999174E+01  0.5373215E+02
  0.4600000E+00  0.1655134E+01  0.1682245E+02 -0.2617116E-07 -0.3924323E-05  0.4999174E+01  0.5080309E+02
  0.4700000E+00  0.1655134E+01  0.1549920E+02 -0.2617116E-07 -0.3655719E-05  0.4999174E+01  0.4680721E+02
  0.4800000E+00  0.1655134E+01  0.1394988E+02 -0.2617116E-07 -0.3341060E-05  0.4999174E+01  0.4212860E+02
  0.4900000E+00  0.1655134E+01  0.1229792E+02 -0.2617116E-07 -0.2984800E-05  0.4999174E+01  0.3713993E+02
  0.5000000E+00  0.1655134E+01  0.1065866E+02 -0.2617116E-07 -0.2592239E-05  0.4999174E+01  0.3218970E+02
  0.5100000E+00  0.1655134E+01  0.9135503E+01 -0.2617116E-07 -0.2169403E-05  0.4999174E+01  0.2758995E+02
  0.5200000E+00  0.1655134E+01  0.7816633E+01 -0.2617116E-07 -0.1722910E-05  0.4999174E+01  0.2360723E+02
  0.5300000E+00  0.1655134E+01  0.6772573E+01 -0.2617116E-07 -0.1259811E-05  0.4999174E+01  0.2045438E+02
  0.5400000E+00  0.1655134E+01  0.6054513E+01 -0.2617116E-07 -0.7874432E-06  0.4999174E+01  0.1828606E+02
  0.5500000E+00  0.1655134E+01  0.5693327E+01 -0.2617116E-07 -0.3132400E-06  0.4999174E+01  0.1719543E+02
  0.5600000E+00  0.1655134E+01  0.5699487E+01 -0.2617116E-07  0.1554260E-06  0.4999174E+01  0.1721427E+02
  0.5700000E+00  0.1655134E+01  0.6063816E+01 -0.2617116E-07  0.6114411E-06  0.4999174E+01  0.1831471E+02
  0.5800000E+00  0.1655134E+01  0.6758838E+01 -0.2617116E-07  0.1048112E-05  0.4999174E+01  0.2041389E+02
  0.5900000E+00  0.1655134E+01  0.7740844E+01 -0.2617116E-07  0.1459323E-05  0.4999174E+01  0.2337968E+02
  0.6000000E+00  0.1655134E+01  0.8952544E+01 -0.2617116E-07  0.1839696E-05  0.4999174E+01  0.2703912E+02
  0.6100000E+00  0.1655134E+01  0.1032598E+02 -0.2617116E-07  0.2184717E-05  0.4999174E+01  0.3118707E+02
  0.6200000E+00  0.1655134E+01  0.1178598E+02 -0.2617116E-07  0.2490829E-05  0.4999174E+01  0.3559635E+02
  0.6300000E+00  0.1655134E+01  0.1325357E+02 -0.2617116E-07  0.2755535E-05  0.4999174E+01  0.4002853E+02
  0.6400000E+00  0.1655134E+01  0.1464950E+02 -0.2617116E-07  0.2977447E-05  0.4999174E+01  0.4424434E+02
  0.6500000E+00  0.1655134E+01  0.1589765E+02 -0.2617116E-07  0.3156289E-05  0.4999174E+01  0.4801381E+02
  0.6600000E+00  0.1655134E+01  0.1692821E+02 -0.2617116E-07  0.3292930E-05  0.4999174E+01  0.5112613E+02
  0.6700000E+00  0.1655134E+01  0.1768045E+02 -0.2617116E-07  0.3389303E-05  0.4999174E+01  0.5339788E+02
  0.6800000E+00  0.1655134E+01  0.1810516E+02 -0.2617116E-07  0.3448373E-05  0.4999174E+01  0.5468048E+02
  0.6900000E+00  0.1655134E+01  0.1816643E+02 -0.2617116E-07  0.3474012E-05  0.4999174E+01  0.5486546E+02
  0.7000000E+00  0.1655134E+01  0.1784300E+02 -0.2617116E-07  0.3470906E-05  0.4999174E+01  0.5388862E+02
  0.7100000E+00  0.1655134E+01  0.1712884E+02 -0.2617116E-07  0.3444387E-05  0.4999174E+01  0.5173173E+02
  0.7200000E+00  0.1655134E+01  0.1603323E+02 -0.2617116E-07  0.3400284E-05  0.4999174E+01  0.4842287E+02
  0.7300000E+00  0.1655134E+01  0.1458023E+02 -0.2617116E-07  0.3344742E-05  0.4999174E+01  0.4403466E+02
  0.7400000E+00  0.1655134E+01  0.1280747E+02 -0.2617116E-07  0.3284023E-05  0.4999174E+01  0.3868076E+02
  0.7500000E+00  0.1655134E+01  0.1076465E+02 -0.2617116E-07  0.3224352E-05  0.4999174E+01  0.3251120E+02
  0.7600000E+00  0.1655134E+01  0.8511271E+01 -0.2617116E-07  0.3171681E-05  0.4999174E+01  0.2570580E+02
  0.7700000E+00  0.1655134E+01  0.6114417E+01 -0.2617116E-07  0.3131553E-05  0.4999174E+01  0.1846708E+02
  0.7800000E+00  0.1655134E+01  0.3645981E+01 -0.2617116E-07  0.3108895E-05  0.4999174E+01  0.1101217E+02
  0.7900000E+00  0.1655134E+01  0.1179942E+01 -0.2617116E-07  0.3107897E-05  0.4999174E+01  0.3564468E+01
  0.8000000E+00  0.1655134E+01 -0.1210512E+01 -0.2617116E-07  0.3131854E-05  0.4999174E+01 -0.3654946E+01
  0.8100000E+00  0.1655134E+01 -0.3455675E+01 -0.2617116E-07  0.3183088E-05  0.4999174E+01 -0.1043558E+02
  0.8200000E+00  0.1655134E+01 -0.5491827E+01 -0.2617116E-07  0.3262850E-05  0.4999174E+01 -0.1658498E+02
  0.8300000E+00  0.1655134E+01 -0.7263573E+01 -0.2617116E-07  0.3371283E-05  0.4999174E+01 -0.2193587E+02
  0.8400000E+00  0.1655134E+01 -0.8725736E+01 -0.2617116E-07  0.3507414E-05  0.4999174E+01 -0.2635180E+02
  0.8500000E+00  0.1655134E+01 -0.9844784E+01 -0.2617116E-07  0.3669162E-05  0.4999174E+01 -0.2973154E+02
  0.8600000E+00  0.1655134E+01 -0.1059990E+02 -0.2617116E-07  0.3853394E-05  0.4999174E+01 -0.3201214E+02
  0.8700000E+00  0.1655134E+01 -0.1098344E+02 -0.2617116E-07  0.4056021E-05  0.4999174E+01 -0.3317058E+02
  0.8800000E+00  0.1655134E+01 -0.1100095E+02 -0.2617116E-07  0.4272084E-05  0.4999174E+01 -0.3322358E+02
  0.8900000E+00  0.1655134E+01 -0.1067071E+02 -0.2617116E-07  0.4495905E-05  0.4999174E+01 -0.3222635E+02
  0.9000000E+00  0.1655134E+01 -0.1002269E+02 -0.2617116E-07  0.4721254E-05  0.4999174E+01 -0.3026941E+02
  0.9100000E+00  0.1655134E+01 -0.9097218E+01 -0.2617116E-07  0.4941498E-05  0.4999174E+01 -0.2747451E+02
  0.9200000E+00  0.1655134E+01 -0.7943206E+01 -0.2617116E-07  0.5149818E-05  0.4999174E+01 -0.2398944E+02
  0.9300000E+00  0.1655134E+01 -0.6616141E+01 -0.2617116E-07  0.5339386E-05  0.4999174E+01 -0.1998170E+02
  0.9400000E+00  0.1655134E+01 -0.5175808E+01 -0.2617116E-07  0.5503555E-05  0.4999174E+01 -0.1563187E+02
  0.9500000E+00  0.1655134E+01 -0.3683980E+01 -0.2617116E-07  0.5636060E-05  0.4999174E+01 -0.1112650E+02
  0.9600000E+00  0.1655134E+01 -0.2202012E+01 -0.2617116E-07  0.5731200E-05  0.4999174E+01 -0.6650938E+01
  0.9700000E+00  0.1655134E+01 -0.7886105E+00 -0.2617116E-07  0.5783992E-05  0.4999174E+01 -0.2382355E+01
  0.9800000E+00  0.1655134E+01  0.5024186E+00 -0.2617116E-07  0.5790333E-05  0.4999174E+01  0.1516618E+01
  0.9899999E+00  0.1655134E+01  0.1624011E+01 -0.2617116E-07  0.5747107E-05  0.4999174E+01  0.4903897E+01
  0.1000000E+01  0.1655134E+01  0.2537418E+01 -0.2617116E-07  0.5652284E-05  0.4999174E+01  0.7662484E+01
  0.1010000E+01  0.1655134E+01  0.3213547E+01 -0.2617116E-07  0.5504994E-05  0.4999174E+01  0.9704469E+01
  0.1020000E+01  0.1655134E+01  0.3633752E+01 -0.2617116E-07  0.5305549E-05  0.4999174E+01  0.1097357E+02
  0.1030000E+01  0.1655134E+01  0.3790290E+01 -0.2617116E-07  0.5055450E-05  0.4999174E+01  0.1144641E+02
  0.1040000E+01  0.1655134E+01  0.3686320E+01 -0.2617116E-07  0.4757358E-05  0.4999174E+01  0.1113248E+02
  0.1050000E+01  0.1655134E+01  0.3335485E+01 -0.2617116E-07  0.4415019E-05  0.4999174E+01  0.1007301E+02
  0.1060000E+01  0.1655134E+01  0.2761093E+01 -0.2617116E-07  0.4033189E-05  0.4999174E+01  0.8338420E+01
  0.1070000E+01  0.1655134E+01  0.1994984E+01 -0.2617116E-07  0.3617500E-05  0.4999174E+01  0.6024797E+01
  0.1080000E+01  0.1655134E+01  0.1076046E+01 -0.2617116E-07  0.3174328E-05  0.4999174E+01  0.3249636E+01
  0.1090000E+01  0.1655134E+01  0.4844198E-01 -0.2617116E-07  0.2710618E-05  0.4999174E+01  0.1462938E+00
  0.1100000E+01  0.1655134E+01 -0.1040123E+01 -0.2617116E-07  0.2233738E-05  0.4999174E+01 -0.3141176E+01
  0.1110000E+01  0.1655134E+01 -0.2140490E+01 -0.2617116E-07  0.1751255E-05  0.4999174E+01 -0.6464313E+01
  0.1120000E+01  0.1655134E+01 -0.3204025E+01 -0.2617116E-07  0.1270766E-05  0.4999174E+01 -0.9676194E+01
  0.1130000E+01  0.1655134E+01 -0.4184461E+01 -0.2617116E-07  0.7997026E-06  0.4999174E+01 -0.1263714E+02
  0.1140000E+01  0.1655134E+01 -0.5039753E+01 -0.2617116E-07  0.3451645E-06  0.4999174E+01 -0.1522017E+02
  0.1150000E+01  0.1655134E+01 -0.5733659E+01 -0.2617116E-07 -0.8629048E-07  0.4999174E+01 -0.1731580E+02
  0.1160000E+01  0.1655134E+01 -0.6237008E+01 -0.2617116E-07 -0.4887622E-06  0.4999174E+01 -0.1883596E+02
  0.1170000E+01  0.1655134E+01 -0.6528771E+01 -0.2617116E-07 -0.8571648E-06  0.4999174E+01 -0.1971714E+02
  0.1180000E+01  0.1655134E+01 -0.6596724E+01 -0.2617116E-07 -0.1187346E-05  0.4999174E+01 -0.1992240E+02
  0.1190000E+01  0.1655134E+01 -0.6437791E+01 -0.2617116E-07 -0.1476160E-05  0.4999174E+01 -0.1944248E+02
  0.1200000E+01  0.1655134E+01 -0.6057949E+01 -0.2617116E-07 -0.1721540E-05  0.4999174E+01 -0.1829539E+02
  0.1210000E+01  0.1655134E+01 -0.5471871E+01 -0.2617116E-07 -0.1922523E-05  0.4999174E+01 -0.1652548E+02
  0.1220000E+01  0.1655134E+01 -0.4702182E+01 -0.2617116E-07 -0.2079252E-05  0.4999174E+01 -0.1420104E+02
  0.1230000E+01  0.1655134E+01 -0.3778428E+01 -0.2617116E-07 -0.2192944E-05  0.4999174E+01 -0.1141132E+02
  0.1240000E+01  0.1655134E+01 -0.2735845E+01 -0.2617116E-07 -0.2265844E-05  0.4999174E+01 -0.8262747E+01
  0.1250000E+01  0.1655134E+01 -0.1613738E+01 -0.2617116E-07 -0.2301136E-05  0.4999174E+01 -0.4873992E+01
  0.1260000E+01  0.1655134E+01 -0.4540072E+00 -0.2617116E-07 -0.2302843E-05  0.4999174E+01 -0.1371586E+01
  0.1270000E+01  0.1655134E+01  0.7005489E+00 -0.2617116E-07 -0.2275694E-05  0.4999174E+01  0.2115191E+01
  0.1280000E+01  0.1655134E+01  0.1808023E+01 -0.2617116E-07 -0.2224997E-05  0.4999174E+01  0.5459794E+01
  0.1290000E+01  0.1655134E+01  0.2828928E+01 -0.2617116E-07 -0.2156470E-05  0.4999174E+01  0.8542966E+01
  0.1300000E+01  0.1655134E+01  0.3727720E+01 -0.2617116E-07 -0.2076098E-05  0.4999174E+01  0.1125736E+02
  0.1310000E+01  0.1655134E+01  0.4474161E+01 -0.2617116E-07 -0.1989958E-05  0.4999174E+01  0.1351165E+02
  0.1320000E+01  0.1655134E+01  0.5044305E+01 -0.2617116E-07 -0.1904070E-05  0.4999174E+01  0.1523356E+02
  0.1330000E+01  0.1655134E+01  0.5421451E+01 -0.2617116E-07 -0.1824220E-05  0.4999174E+01  0.1637261E+02
  0.1340000E+01  0.1655134E+01  0.5596543E+01 -0.2617116E-07 -0.1755838E-05  0.4999174E+01  0.1690146E+02
  0.1350000E+01  0.1655134E+01  0.5568456E+01 -0.2617116E-07 -0.1703847E-05  0.4999174E+01  0.1681669E+02
  0.1360000E+01  0.1655134E+01  0.5343861E+01 -0.2617116E-07 -0.1672571E-05  0.4999174E+01  0.1613848E+02
  0.1370000E+01  0.1655134E+01  0.4936818E+01 -0.2617116E-07 -0.1665610E-05  0.4999174E+01  0.1490929E+02
  0.1380000E+01  0.1655134E+01  0.4368141E+01 -0.2617116E-07 -0.1685789E-05  0.4999174E+01  0.1319194E+02
  0.1390000E+01  0.1655134E+01  0.3664336E+01 -0.2617116E-07 -0.1735098E-05  0.4999174E+01  0.1106651E+02
  0.1400000E+01  0.1655134E+01  0.2856558E+01 -0.2617116E-07 -0.1814671E-05  0.4999174E+01  0.8627074E+01
  0.1410000E+01  0.1655134E+01  0.1979280E+01 -0.2617116E-07 -0.1924766E-05  0.4999174E+01  0.5977745E+01
  0.1420000E+01  0.1655134E+01  0.1068843E+01 -0.2617116E-07 -0.2064815E-05  0.4999174E+01  0.3228267E+01
  0.1430000E+01  0.1655134E+01  0.1620382E+00 -0.2617116E-07 -0.2233427E-05  0.4999174E+01  0.4897528E+00
  0.1440000E+01  0.1655134E+01 -0.7054505E+00 -0.2617116E-07 -0.2428500E-05  0.4999174E+01 -0.2130048E+01
  0.1450000E+01  0.1655134E+01 -0.1500285E+01 -0.2617116E-07 -0.2647256E-05  0.4999174E+01 -0.4530429E+01
  0.1460000E+01  0.1655134E+01 -0.2192874E+01 -0.2617116E-07 -0.2886349E-05  0.4999174E+01 -0.6622028E+01
  0.1470000E+01  0.1655134E+01 -0.2758375E+01 -0.2617116E-07 -0.3141993E-05  0.4999174E+01 -0.8329851E+01
  0.1480000E+01  0.1655134E+01 -0.3177653E+01 -0.2617116E-07 -0.3410064E-05  0.4999174E+01 -0.9596086E+01
  0.1490000E+01  0.1655134E+01 -0.3437902E+01 -0.2617116E-07 -0.3686208E-05  0.4999174E+01 -0.1038206E+02
  0.1500000E+01  0.1655134E+01 -0.3533001E+01 -0.2617116E-07 -0.3965984E-05  0.4999174E+01 -0.1066929E+02
  0.1510000E+01  0.1655134E+01 -0.3463666E+01 -0.2617116E-07 -0.4244982E-05  0.4999174E+01 -0.1045992E+02
  0.1520000E+01  0.1655134E+01 -0.3237262E+01 -0.2617116E-07 -0.4518934E-05  0.4999174E+01 -0.9776222E+01
  0.1530000E+01  0.1655134E+01 -0.2867403E+01 -0.2617116E-07 -0.4783829E-05  0.4999174E+01 -0.8659303E+01
  0.1540000E+01  0.1655134E+01 -0.2373235E+01 -0.2617116E-07 -0.5035987E-05  0.4999174E+01 -0.7166964E+01
  0.1550000E+01  0.1655134E+01 -0.1778648E+01 -0.2617116E-07 -0.5272181E-05  0.4999174E+01 -0.5371367E+01
  0.1560000E+01  0.1655134E+01 -0.1111088E+01 -0.2617116E-07 -0.5489672E-05  0.4999174E+01 -0.3355374E+01
  0.1570000E+01  0.1655134E+01 -0.4005352E+00 -0.2617116E-07 -0.5686260E-05  0.4999174E+01 -0.1209565E+01
  0.1580000E+01  0.1655134E+01  0.3219051E+00 -0.2617116E-07 -0.5860347E-05  0.4999174E+01  0.9721508E+00
  0.1590000E+01  0.1655134E+01  0.1025160E+01 -0.2617116E-07 -0.6010919E-05  0.4999174E+01  0.3095932E+01
  0.1600000E+01  0.1655134E+01  0.1679526E+01 -0.2617116E-07 -0.6137548E-05  0.4999174E+01  0.5072071E+01
  0.1610000E+01  0.1655134E+01  0.2257858E+01 -0.2617116E-07 -0.6240372E-05  0.4999174E+01  0.6818585E+01
  0.1620000E+01  0.1655134E+01  0.2736542E+01 -0.2617116E-07 -0.6320070E-05  0.4999174E+01  0.8264172E+01
  0.1630000E+01  0.1655134E+01  0.3096558E+01 -0.2617116E-07 -0.6377776E-05  0.4999174E+01  0.9351390E+01
  0.1640000E+01  0.1655134E+01  0.3324062E+01 -0.2617116E-07 -0.6415031E-05  0.4999174E+01  0.1003843E+02
  0.1650000E+01  0.1655134E+01  0.3410866E+01 -0.2617116E-07 -0.6433701E-05  0.4999174E+01  0.1030056E+02
  0.1660000E+01  0.1655134E+01  0.3354832E+01 -0.2617116E-07 -0.6435890E-05  0.4999174E+01  0.1013133E+02
  0.1670000E+01  0.1655134E+01  0.3159684E+01 -0.2617116E-07 -0.6423816E-05  0.4999174E+01  0.9541976E+01
  0.1680000E+01  0.1655134E+01  0.2834917E+01 -0.2617116E-07 -0.6399758E-05  0.4999174E+01  0.8561191E+01
  0.1690000E+01  0.1655134E+01  0.2395287E+01 -0.2617116E-07 -0.6365905E-05  0.4999174E+01  0.7233517E+01
  0.1700000E+01  0.1655134E+01  0.1860080E+01 -0.2617116E-07 -0.6324323E-05  0.4999174E+01  0.5617224E+01
  0.1710000E+01  0.1655134E+01  0.1252370E+01 -0.2617116E-07 -0.6276789E-05  0.4999174E+01  0.3781960E+01
  0.1720000E+01  0.1655134E+01  0.5979550E+00 -0.2617116E-07 -0.6224748E-05  0.4999174E+01  0.1805658E+01
  0.1730000E+01  0.1655134E+01 -0.7574725E-01 -0.2617116E-07 -0.6169246E-05  0.4999174E+01 -0.2288763E+00
  0.1740000E+01  0.1655134E+01 -0.7407590E+00 -0.2617116E-07 -0.6110847E-05  0.4999174E+01 -0.2237171E+01
  0.1750000E+01  0.1655134E+01 -0.1369752E+01 -0.2617116E-07 -0.6049574E-05  0.4999174E+01 -0.4136686E+01
  0.1760000E+01  0.1655134E+01 -0.1937188E+01 -0.2617116E-07 -0.5984911E-05  0.4999174E+01 -0.5850294E+01
  0.1770000E+01  0.1655134E+01 -0.2420288E+01 -0.2617116E-07 -0.5915761E-05  0.4999174E+01 -0.7309208E+01
  0.1780000E+01  0.1655134E+01 -0.2799938E+01 -0.2617116E-07 -0.5840462E-05  0.4999174E+01 -0.8455694E+01
  0.1790000E+01  0.1655134E+01 -0.3061478E+01 -0.2617116E-07 -0.5756777E-05  0.4999174E+01 -0.9245516E+01
  0.1800000E+01  0.1655134E+01 -0.3195256E+01 -0.2617116E-07 -0.5661982E-05  0.4999174E+01 -0.9649480E+01
  0.1810000E+01  0.1655134E+01 -0.3196906E+01 -0.2617116E-07 -0.5552871E-05  0.4999174E+01 -0.9654414E+01
  0.1820000E+01  0.1655134E+01 -0.3067561E+01 -0.2617116E-07 -0.5425841E-05  0.4999174E+01 -0.9263760E+01
  0.1830000E+01  0.1655134E+01 -0.2813709E+01 -0.2617116E-07 -0.5276998E-05  0.4999174E+01 -0.8497100E+01
  0.1840000E+01  0.1655134E+01 -0.2446903E+01 -0.2617116E-07 -0.5102228E-05  0.4999174E+01 -0.7389334E+01
  0.1850000E+01  0.1655134E+01 -0.1983279E+01 -0.2617116E-07 -0.4897322E-05  0.4999174E+01 -0.5989168E+01
  0.1860000E+01  0.1655134E+01 -0.1442769E+01 -0.2617116E-07 -0.4658077E-05  0.4999174E+01 -0.4356843E+01
  0.1870000E+01  0.1655134E+01 -0.8483082E+00 -0.2617116E-07 -0.4380433E-05  0.4999174E+01 -0.2561578E+01
  0.1880000E+01  0.1655134E+01 -0.2249385E+00 -0.2617116E-07 -0.4060605E-05  0.4999174E+01 -0.6790143E+00
  0.1890000E+01  0.1655134E+01  0.4013282E+00 -0.2617116E-07 -0.3695183E-05  0.4999174E+01  0.1212282E+01
  0.1900000E+01  0.1655134E+01  0.1004512E+01 -0.2617116E-07 -0.3281290E-05  0.4999174E+01  0.3033860E+01
  0.1910000E+01  0.1655134E+01  0.1559791E+01 -0.2617116E-07 -0.2816672E-05  0.4999174E+01  0.4710756E+01
  0.1920000E+01  0.1655134E+01  0.2044390E+01 -0.2617116E-07 -0.2299822E-05  0.4999174E+01  0.6174192E+01
  0.1930000E+01  0.1655134E+01  0.2438603E+01 -0.2617116E-07 -0.1730080E-05  0.4999174E+01  0.7364665E+01
  0.1940000E+01  0.1655134E+01  0.2726561E+01 -0.2617116E-07 -0.1107700E-05  0.4999174E+01  0.8234225E+01
  0.1950000E+01  0.1655134E+01  0.2896760E+01 -0.2617116E-07 -0.4339327E-06  0.4999174E+01  0.8748165E+01
  0.1960000E+01  0.1655134E+01  0.2942659E+01 -0.2617116E-07  0.2889330E-06  0.4999174E+01  0.8886725E+01
  0.1970000E+01  0.1655134E+01  0.2862768E+01 -0.2617116E-07  0.1057540E-05  0.4999174E+01  0.8645375E+01
  0.1980000E+01  0.1655134E+01  0.2660776E+01 -0.2617116E-07  0.1867470E-05  0.4999174E+01  0.8035297E+01
  0.1990000E+01  0.1655134E+01  0.2345377E+01 -0.2617116E-07  0.2713252E-05  0.4999174E+01  0.7082738E+01
  0.2000000E+01  0.1655134E+01  0.1929784E+01 -0.2617116E-07  0.3588392E-05  0.4999174E+01  0.5827590E+01
  0.2010000E+01  0.1655134E+01  0.1431346E+01 -0.2617116E-07  0.4485471E-05  0.4999174E+01  0.4322260E+01
  0.2020000E+01  0.1655134E+01  0.8707262E+00 -0.2617116E-07  0.5396208E-05  0.4999174E+01  0.2629153E+01
  0.2030000E+01  0.1655134E+01  0.2710232E+00 -0.2617116E-07  0.6311590E-05  0.4999174E+01  0.8180183E+00
  0.2040000E+01  0.1655134E+01 -0.3430909E+00 -0.2617116E-07  0.7221985E-05  0.4999174E+01 -0.1036614E+01
  0.2050000E+01  0.1655134E+01 -0.9464077E+00 -0.2617116E-07  0.8117301E-05  0.4999174E+01 -0.2858636E+01
  0.2060000E+01  0.1655134E+01 -0.1514226E+01 -0.2617116E-07  0.8987152E-05  0.4999174E+01 -0.4573447E+01
  0.2070000E+01  0.1655134E+01 -0.2023272E+01 -0.2617116E-07  0.9821030E-05  0.4999174E+01 -0.6110740E+01
  0.2080000E+01  0.1655134E+01 -0.2452713E+01 -0.2617116E-07  0.1060851E-04  0.4999174E+01 -0.7407625E+01
  0.2090000E+01  0.1655134E+01 -0.2784963E+01 -0.2617116E-07  0.1133942E-04  0.4999174E+01 -0.8410967E+01
  0.2100000E+01  0.1655134E+01 -0.3006279E+01 -0.2617116E-07  0.1200405E-04  0.4999174E+01 -0.9079289E+01
  0.2110000E+01  0.1655134E+01 -0.3107483E+01 -0.2617116E-07  0.1259332E-04  0.4999174E+01 -0.9384861E+01
  0.2120000E+01  0.1655134E+01 -0.3084171E+01 -0.2617116E-07  0.1309900E-04  0.4999174E+01 -0.9314396E+01
  0.2130000E+01  0.1655134E+01 -0.2936941E+01 -0.2617116E-07  0.1351388E-04  0.4999174E+01 -0.8869675E+01
  0.2140000E+01  0.1655134E+01 -0.2671359E+01 -0.2617116E-07  0.1383186E-04  0.4999174E+01 -0.8067534E+01
  0.2150000E+01  0.1655134E+01 -0.2297687E+01 -0.2617116E-07  0.1404821E-04  0.4999174E+01 -0.6938960E+01
  0.2160000E+01  0.1655134E+01 -0.1830519E+01 -0.2617116E-07  0.1415955E-04  0.4999174E+01 -0.5528034E+01
  0.2170000E+01  0.1655134E+01 -0.1288171E+01 -0.2617116E-07  0.1416405E-04  0.4999174E+01 -0.3890052E+01
  0.2180000E+01  0.1655134E+01 -0.6918666E+00 -0.2617116E-07  0.1406143E-04  0.4999174E+01 -0.2089139E+01
  0.2190000E+01  0.1655134E+01 -0.6508593E-01 -0.2617116E-07  0.1385300E-04  0.4999174E+01 -0.1961946E+00
  0.2200000E+01  0.1655134E+01  0.5675824E+00 -0.2617116E-07  0.1354168E-04  0.4999174E+01  0.1714527E+01
  0.2210000E+01  0.1655134E+01  0.1181255E+01 -0.2617116E-07  0.1313193E-04  0.4999174E+01  0.3567868E+01
  0.2220000E+01  0.1655134E+01  0.1751880E+01 -0.2617116E-07  0.1262971E-04  0.4999174E+01  0.5291199E+01
  0.2230000E+01  0.1655134E+01  0.2257022E+01 -0.2617116E-07  0.1204237E-04  0.4999174E+01  0.6816747E+01
  0.2240000E+01  0.1655134E+01  0.2676796E+01 -0.2617116E-07  0.1137854E-04  0.4999174E+01  0.8084489E+01
  0.2250000E+01  0.1655134E+01  0.2994791E+01 -0.2617116E-07  0.1064790E-04  0.4999174E+01  0.9044826E+01
  0.2260000E+01  0.1655134E+01  0.3198493E+01 -0.2617116E-07  0.9861106E-05  0.4999174E+01  0.9659991E+01
  0.2270000E+01  0.1655134E+01  0.3279847E+01 -0.2617116E-07  0.9029508E-05  0.4999174E+01  0.9905659E+01
  0.2280000E+01  0.1655134E+01  0.3235623E+01 -0.2617116E-07  0.8164958E-05  0.4999174E+01  0.9772062E+01
  0.2290000E+01  0.1655134E+01  0.3067420E+01 -0.2617116E-07  0.7279565E-05  0.4999174E+01  0.9264038E+01
  0.2300000E+01  0.1655134E+01  0.2781677E+01 -0.2617116E-07  0.6385471E-05  0.4999174E+01  0.8401027E+01
  0.2310000E+01  0.1655134E+01  0.2389435E+01 -0.2617116E-07  0.5494603E-05  0.4999174E+01  0.7216376E+01
  0.2320000E+01  0.1655134E+01  0.1905754E+01 -0.2617116E-07  0.4618444E-05  0.4999174E+01  0.5755585E+01
  0.2330000E+01  0.1655134E+01  0.1349195E+01 -0.2617116E-07  0.3767792E-05  0.4999174E+01  0.4074689E+01
  0.2340000E+01  0.1655134E+01  0.7412255E+00 -0.2617116E-07  0.2952570E-05  0.4999174E+01  0.2238534E+01
  0.2350000E+01  0.1655134E+01  0.1051493E+00 -0.2617116E-07  0.2181620E-05  0.4999174E+01  0.3174969E+00
  0.2360000E+01  0.1655134E+01 -0.5346780E+00 -0.2617116E-07  0.1462540E-05  0.4999174E+01 -0.1614867E+01
  0.2370000E+01  0.1655134E+01 -0.1153813E+01 -0.2617116E-07  0.8015720E-06  0.4999174E+01 -0.3484733E+01
  0.2380000E+01  0.1655134E+01 -0.1728630E+01 -0.2617116E-07  0.2034652E-06  0.4999174E+01 -0.5220758E+01
  0.2390000E+01  0.1655134E+01 -0.2237353E+01 -0.2617116E-07 -0.3285775E-06  0.4999174E+01 -0.6757163E+01
  0.2400000E+01  0.1655134E+01 -0.2660731E+01 -0.2617116E-07 -0.7929142E-06  0.4999174E+01 -0.8035819E+01
  0.2410000E+01  0.1655134E+01 -0.2982841E+01 -0.2617116E-07 -0.1189493E-05  0.4999174E+01 -0.9008630E+01
  0.2420000E+01  0.1655134E+01 -0.3191762E+01 -0.2617116E-07 -0.1519777E-05  0.4999174E+01 -0.9639606E+01
  0.2430000E+01  0.1655134E+01 -0.3279880E+01 -0.2617116E-07 -0.1786668E-05  0.4999174E+01 -0.9905738E+01
  0.2440000E+01  0.1655134E+01 -0.3244194E+01 -0.2617116E-07 -0.1994425E-05  0.4999174E+01 -0.9797971E+01
  0.2450000E+01  0.1655134E+01 -0.3086557E+01 -0.2617116E-07 -0.2148448E-05  0.4999174E+01 -0.9321898E+01
  0.2460000E+01  0.1655134E+01 -0.2813386E+01 -0.2617116E-07 -0.2255191E-05  0.4999174E+01 -0.8496895E+01
  0.2470000E+01  0.1655134E+01 -0.2435370E+01 -0.2617116E-07 -0.2321900E-05  0.4999174E+01 -0.7355242E+01
  0.2480000E+01  0.1655134E+01 -0.1967340E+01 -0.2617116E-07 -0.2356430E-05  0.4999174E+01 -0.5941747E+01
  0.2490000E+01  0.1655134E+01 -0.1427346E+01 -0.2617116E-07 -0.2367011E-05  0.4999174E+01 -0.4310905E+01
  0.2500000E+01  0.1655134E+01 -0.8361136E+00 -0.2617116E-07 -0.2362024E-05  0.4999174E+01 -0.2525313E+01
  0.2510000E+01  0.1655134E+01 -0.2161583E+00 -0.2617116E-07 -0.2349748E-05  0.4999174E+01 -0.6529849E+00
  0.2520000E+01  0.1655134E+01  0.4089829E+00 -0.2617116E-07 -0.2338165E-05  0.4999174E+01  0.1235023E+01
  0.2530000E+01  0.1655134E+01  0.1015769E+01 -0.2617116E-07 -0.2334719E-05  0.4999174E+01  0.3067591E+01
  0.2540000E+01  0.1655134E+01  0.1581464E+01 -0.2617116E-07 -0.2346136E-05  0.4999174E+01  0.4776075E+01
  0.2550000E+01  0.1655134E+01  0.2085075E+01 -0.2617116E-07 -0.2378258E-05  0.4999174E+01  0.6297053E+01
  0.2560000E+01  0.1655134E+01  0.2508126E+01 -0.2617116E-07 -0.2435880E-05  0.4999174E+01  0.7574741E+01
  0.2570000E+01  0.1655134E+01  0.2835235E+01 -0.2617116E-07 -0.2522646E-05  0.4999174E+01  0.8562669E+01
  0.2580000E+01  0.1655134E+01  0.3054823E+01 -0.2617116E-07 -0.2640977E-05  0.4999174E+01  0.9225883E+01
  0.2590000E+01  0.1655134E+01  0.3159497E+01 -0.2617116E-07 -0.2792012E-05  0.4999174E+01  0.9542045E+01
  0.2600000E+01  0.1655134E+01  0.3146182E+01 -0.2617116E-07 -0.2975616E-05  0.4999174E+01  0.9501861E+01
  0.2610000E+01  0.1655134E+01  0.3016344E+01 -0.2617116E-07 -0.3190404E-05  0.4999174E+01  0.9109774E+01
  0.2620000E+01  0.1655134E+01  0.2775862E+01 -0.2617116E-07 -0.3433802E-05  0.4999174E+01  0.8383525E+01
  0.2630000E+01  0.1655134E+01  0.2434673E+01 -0.2617116E-07 -0.3702163E-05  0.4999174E+01  0.7353129E+01
  0.2640000E+01  0.1655134E+01  0.2006494E+01 -0.2617116E-07 -0.3990866E-05  0.4999174E+01  0.6060013E+01
  0.2650000E+01  0.1655134E+01  0.1508135E+01 -0.2617116E-07 -0.4294503E-05  0.4999174E+01  0.4554938E+01
  0.2660000E+01  0.1655134E+01  0.9589425E+00 -0.2617116E-07 -0.4607032E-05  0.4999174E+01  0.2896345E+01
  0.2670000E+01  0.1655134E+01  0.3799796E+00 -0.2617116E-07 -0.4921986E-05  0.4999174E+01  0.1147825E+01
  0.2680000E+01  0.1655134E+01 -0.2067998E+00 -0.2617116E-07 -0.5232653E-05  0.4999174E+01 -0.6243054E+00
  0.2690000E+01  0.1655134E+01 -0.7793932E+00 -0.2617116E-07 -0.5532318E-05  0.4999174E+01 -0.2353607E+01
  0.2700000E+01  0.1655134E+01 -0.1316493E+01 -0.2617116E-07 -0.5814411E-05  0.4999174E+01 -0.3975718E+01
  0.2710000E+01  0.1655134E+01 -0.1798477E+01 -0.2617116E-07 -0.6072775E-05  0.4999174E+01 -0.5431388E+01
  0.2720000E+01  0.1655134E+01 -0.2207969E+01 -0.2617116E-07 -0.6301783E-05  0.4999174E+01 -0.6668114E+01
  0.2730000E+01  0.1655134E+01 -0.2530551E+01 -0.2617116E-07 -0.6496537E-05  0.4999174E+01 -0.7642392E+01
  0.2740000E+01  0.1655134E+01 -0.2755278E+01 -0.2617116E-07 -0.6653015E-05  0.4999174E+01 -0.8321125E+01
  0.2750000E+01  0.1655134E+01 -0.2875034E+01 -0.2617116E-07 -0.6768148E-05  0.4999174E+01 -0.8682853E+01
  0.2760000E+01  0.1655134E+01 -0.2886734E+01 -0.2617116E-07 -0.6839942E-05  0.4999174E+01 -0.8718247E+01
  0.2770000E+01  0.1655134E+01 -0.2791467E+01 -0.2617116E-07 -0.6867488E-05  0.4999174E+01 -0.8430587E+01
  0.2780000E+01  0.1655134E+01 -0.2594336E+01 -0.2617116E-07 -0.6851016E-05  0.4999174E+01 -0.7835286E+01