VARIABLES="w (rad/s)"
"abs(F   1   1)" "angle(F   1   1)"
"abs(F   1   2)" "angle(F   1   2)"
"abs(F   1   3)" "angle(F   1   3)"
Zone t="Diffraction force - beta =   0.000 deg",I=    32,F=POINT
  0.1000000E+00  0.1194298E+04 -0.1570796E+01  0.8765332E+03 -0.3136880E+01  0.1082414E+04 -0.1570796E+01
  0.2000000E+00  0.4813563E+04 -0.1570783E+01  0.3507528E+04 -0.3123840E+01  0.4355841E+04 -0.1570782E+01
  0.3000000E+00  0.1083042E+05 -0.1570649E+01  0.7790253E+04 -0.3104983E+01  0.9734173E+04 -0.1570638E+01
  0.4000000E+00  0.1928644E+05 -0.1569998E+01  0.1351419E+05 -0.3083721E+01  0.1718809E+05 -0.1569939E+01
  0.5000000E+00  0.3025046E+05 -0.1567894E+01  0.2030810E+05 -0.3063454E+01  0.2666104E+05 -0.1567670E+01
  0.6000001E+00  0.4389705E+05 -0.1562620E+01  0.2772435E+05 -0.3047280E+01  0.3815988E+05 -0.1561958E+01
  0.7000000E+00  0.6070257E+05 -0.1551556E+01  0.3537955E+05 -0.3037964E+01  0.5189056E+05 -0.1549909E+01
  0.8000001E+00  0.8072917E+05 -0.1531053E+01  0.4295534E+05 -0.3037384E+01  0.6783877E+05 -0.1527511E+01
  0.9000000E+00  0.1050298E+06 -0.1496724E+01  0.5005225E+05 -0.3045771E+01  0.8635694E+05 -0.1489767E+01
  0.1000000E+01  0.1334258E+06 -0.1443281E+01  0.5674072E+05 -0.3063663E+01  0.1073434E+06 -0.1430892E+01
  0.1100000E+01  0.1670527E+06 -0.1365398E+01  0.6268790E+05 -0.3089193E+01  0.1308948E+06 -0.1344563E+01
  0.1200000E+01  0.2035456E+06 -0.1256642E+01  0.6799972E+05 -0.3121320E+01  0.1552804E+06 -0.1223684E+01
  0.1300000E+01  0.2413955E+06 -0.1114042E+01  0.7262647E+05  0.3124465E+01  0.1790030E+06 -0.1064363E+01
  0.1400000E+01  0.2752725E+06 -0.9373642E+00  0.7628388E+05  0.3082586E+01  0.1981016E+06 -0.8651606E+00
  0.1500000E+01  0.2985281E+06 -0.7345123E+00  0.7888407E+05  0.3035512E+01  0.2084400E+06 -0.6328415E+00
  0.1600000E+01  0.3055678E+06 -0.5200577E+00  0.8031806E+05  0.2981154E+01  0.2074377E+06 -0.3812109E+00
  0.1700000E+01  0.2963177E+06 -0.3106155E+00  0.8071445E+05  0.2917088E+01  0.1965152E+06 -0.1264323E+00
  0.1800000E+01  0.2747165E+06 -0.1177881E+00  0.8034240E+05  0.2841096E+01  0.1794745E+06  0.1193696E+00
  0.1900000E+01  0.2465155E+06  0.5495524E-01  0.7963511E+05  0.2752941E+01  0.1606291E+06  0.3505352E+00
  0.2000000E+01  0.2161405E+06  0.2091597E+00  0.7902270E+05  0.2655054E+01  0.1427278E+06  0.5648204E+00
  0.2100000E+01  0.1861662E+06  0.3489044E+00  0.7881091E+05  0.2552424E+01  0.1268901E+06  0.7610657E+00
  0.2200000E+01  0.1577447E+06  0.4788995E+00  0.7906463E+05  0.2451756E+01  0.1131120E+06  0.9375083E+00
  0.2300000E+01  0.1314479E+06  0.6034119E+00  0.7962034E+05  0.2359213E+01  0.1009688E+06  0.1092720E+01
  0.2400000E+01  0.1073536E+06  0.7266857E+00  0.8017402E+05  0.2279374E+01  0.8983315E+05  0.1225834E+01
  0.2500000E+01  0.8542324E+05  0.8544812E+00  0.8053570E+05  0.2217355E+01  0.7915941E+05  0.1337018E+01
  0.2600000E+01  0.6564723E+05  0.9941348E+00  0.8110030E+05  0.2187320E+01  0.6862299E+05  0.1427488E+01
  0.2700000E+01  0.4794692E+05  0.1161063E+01  0.5380666E+05  0.1840905E+01  0.5805830E+05  0.1498758E+01
  0.2800000E+01  0.3251889E+05  0.1393003E+01  0.6915073E+05  0.2012176E+01  0.4749609E+05  0.1552264E+01
  0.2900000E+01  0.2023243E+05  0.1794259E+01  0.6526082E+05  0.1998646E+01  0.3706421E+05  0.1588873E+01
  0.3000000E+01  0.1413601E+05  0.2568418E+01  0.5933618E+05  0.1980042E+01  0.2699152E+05  0.1608376E+01
  0.3100000E+01  0.1707810E+05 -0.2921953E+01  0.5204559E+05  0.1960860E+01  0.1754716E+05  0.1604686E+01
  0.3200000E+01  0.2362813E+05 -0.2505005E+01  0.4382004E+05  0.1939997E+01  0.8971088E+04  0.1550063E+01
