 VARIABLES="Time (s)"
"AddedMass    1" "IRF    1"
"AddedMass    2" "IRF    2"
"AddedMass    3" "IRF    3"
Zone t="DoF    1",I=   160,F=POINT
  0.0000000E+00  0.1306613E+05  0.2003518E+05 -0.2861953E-02 -0.3470167E-02  0.5800808E+05  0.9709414E+05
  0.1000000E+00  0.1306613E+05  0.1943702E+05 -0.2861953E-02 -0.3399036E-02  0.5800808E+05  0.9418438E+05
  0.2000000E+00  0.1306613E+05  0.1768360E+05 -0.2861953E-02 -0.3190299E-02  0.5800808E+05  0.8565536E+05
  0.3000000E+00  0.1306613E+05  0.1489501E+05 -0.2861953E-02 -0.2857566E-02  0.5800808E+05  0.7209275E+05
  0.4000000E+00  0.1306613E+05  0.1126137E+05 -0.2861953E-02 -0.2422370E-02  0.5800808E+05  0.5442363E+05
  0.5000000E+00  0.1306613E+05  0.7028588E+04 -0.2861953E-02 -0.1912544E-02  0.5800808E+05  0.3384692E+05
  0.6000000E+00  0.1306613E+05  0.2480046E+04 -0.2861953E-02 -0.1360130E-02  0.5800808E+05  0.1174398E+05
  0.7000000E+00  0.1306613E+05 -0.2084308E+04 -0.2861953E-02 -0.7989923E-03  0.5800808E+05 -0.1042354E+05
  0.8000000E+00  0.1306613E+05 -0.6369875E+04 -0.2861953E-02 -0.2623273E-03  0.5800808E+05 -0.3122067E+05
  0.9000000E+00  0.1306613E+05 -0.1010855E+05 -0.2861953E-02  0.2197352E-03  0.5800808E+05 -0.4934236E+05
  0.1000000E+01  0.1306613E+05 -0.1307749E+05 -0.2861953E-02  0.6222487E-03  0.5800808E+05 -0.6370508E+05
  0.1100000E+01  0.1306613E+05 -0.1511414E+05 -0.2861953E-02  0.9271238E-03  0.5800808E+05 -0.7351984E+05
  0.1200000E+01  0.1306613E+05 -0.1612625E+05 -0.2861953E-02  0.1124228E-02  0.5800808E+05 -0.7834128E+05
  0.1300000E+01  0.1306613E+05 -0.1609644E+05 -0.2861953E-02  0.1211837E-02  0.5800808E+05 -0.7808938E+05
  0.1400000E+01  0.1306613E+05 -0.1508087E+05 -0.2861953E-02  0.1196417E-02  0.5800808E+05 -0.7304290E+05
  0.1500000E+01  0.1306613E+05 -0.1320236E+05 -0.2861953E-02  0.1091756E-02  0.5800808E+05 -0.6380549E+05
  0.1600000E+01  0.1306613E+05 -0.1063868E+05 -0.2861953E-02  0.9175511E-03  0.5800808E+05 -0.5124833E+05
  0.1700000E+01  0.1306613E+05 -0.7607008E+04 -0.2861953E-02  0.6975514E-03  0.5800808E+05 -0.3643389E+05
  0.1800000E+01  0.1306613E+05 -0.4345939E+04 -0.2861953E-02  0.4574427E-03  0.5800808E+05 -0.2052788E+05
  0.1900000E+01  0.1306613E+05 -0.1096528E+04 -0.2861953E-02  0.2226443E-03  0.5800808E+05 -0.4706703E+04
  0.2000000E+01  0.1306613E+05  0.1916040E+04 -0.2861953E-02  0.1619893E-04  0.5800808E+05  0.9932140E+04
  0.2100000E+01  0.1306613E+05  0.4498739E+04 -0.2861953E-02 -0.1430586E-03  0.5800808E+05  0.2244960E+05
  0.2200000E+01  0.1306613E+05  0.6503721E+04 -0.2861953E-02 -0.2419185E-03  0.5800808E+05  0.3212836E+05
  0.2300000E+01  0.1306613E+05  0.7837146E+04 -0.2861953E-02 -0.2736851E-03  0.5800808E+05  0.3851584E+05
  0.2400000E+01  0.1306613E+05  0.8463221E+04 -0.2861953E-02 -0.2384708E-03  0.5800808E+05  0.4144356E+05
  0.2500000E+01  0.1306613E+05  0.8403399E+04 -0.2861953E-02 -0.1428908E-03  0.5800808E+05  0.4102286E+05
  0.2600000E+01  0.1306613E+05  0.7730980E+04 -0.2861953E-02  0.8017885E-06  0.5800808E+05  0.3761810E+05
  0.2700000E+01  0.1306613E+05  0.6561764E+04 -0.2861953E-02  0.1760601E-03  0.5800808E+05  0.3180072E+05
  0.2800000E+01  0.1306613E+05  0.5041736E+04 -0.2861953E-02  0.3637279E-03  0.5800808E+05  0.2428864E+05
  0.2900000E+01  0.1306613E+05  0.3332946E+04 -0.2861953E-02  0.5439249E-03  0.5800808E+05  0.1587704E+05
  0.3000000E+01  0.1306613E+05  0.1598893E+04 -0.2861953E-02  0.6979455E-03  0.5800808E+05  0.7366774E+04
  0.3100000E+01  0.1306613E+05 -0.9387266E+01 -0.2861953E-02  0.8100231E-03  0.5800808E+05 -0.5037285E+03
  0.3200000E+01  0.1306613E+05 -0.1365276E+04 -0.2861953E-02  0.8687919E-03  0.5800808E+05 -0.7116835E+04
  0.3300000E+01  0.1306613E+05 -0.2375746E+04 -0.2861953E-02  0.8683308E-03  0.5800808E+05 -0.1202046E+05
  0.3400000E+01  0.1306613E+05 -0.2987009E+04 -0.2861953E-02  0.8086956E-03  0.5800808E+05 -0.1495543E+05
  0.3500000E+01  0.1306613E+05 -0.3186390E+04 -0.2861953E-02  0.6959076E-03  0.5800808E+05 -0.1586433E+05
  0.3600000E+01  0.1306613E+05 -0.3000437E+04 -0.2861953E-02  0.5413946E-03  0.5800808E+05 -0.1488200E+05
  0.3700000E+01  0.1306613E+05 -0.2489651E+04 -0.2861953E-02  0.3609488E-03  0.5800808E+05 -0.1230932E+05
  0.3800000E+01  0.1306613E+05 -0.1740450E+04 -0.2861953E-02  0.1732963E-03  0.5800808E+05 -0.8573657E+04
  0.3900000E+01  0.1306613E+05 -0.8552765E+03 -0.2861953E-02 -0.1607834E-05  0.5800808E+05 -0.4180158E+04
  0.4000000E+01  0.1306613E+05  0.5814859E+02 -0.2861953E-02 -0.1443775E-03  0.5800808E+05  0.3411051E+03
  0.4100000E+01  0.1306613E+05  0.8974788E+03 -0.2861953E-02 -0.2379688E-03  0.5800808E+05  0.4487309E+04
  0.4200000E+01  0.1306613E+05  0.1575211E+04 -0.2861953E-02 -0.2692383E-03  0.5800808E+05  0.7829364E+04
  0.4300000E+01  0.1306613E+05  0.2026232E+04 -0.2861953E-02 -0.2301705E-03  0.5800808E+05  0.1004878E+05
  0.4400000E+01  0.1306613E+05  0.2212847E+04 -0.2861953E-02 -0.1186747E-03  0.5800808E+05  0.1096218E+05
  0.4500000E+01  0.1306613E+05  0.2126885E+04 -0.2861953E-02  0.6112590E-04  0.5800808E+05  0.1053147E+05
  0.4600000E+01  0.1306613E+05  0.1788859E+04 -0.2861953E-02  0.2991381E-03  0.5800808E+05  0.8859491E+04
  0.4700000E+01  0.1306613E+05  0.1244425E+04 -0.2861953E-02  0.5800301E-03  0.5800808E+05  0.6172446E+04
  0.4800000E+01  0.1306613E+05  0.5585677E+03 -0.2861953E-02  0.8844126E-03  0.5800808E+05  0.2791211E+04
  0.4900000E+01  0.1306613E+05 -0.1918158E+03 -0.2861953E-02  0.1190354E-02  0.5800808E+05 -0.9052028E+03
  0.5000000E+01  0.1306613E+05 -0.9261643E+03 -0.2861953E-02  0.1475104E-02  0.5800808E+05 -0.4520229E+04
  0.5100000E+01  0.1306613E+05 -0.1568455E+04 -0.2861953E-02  0.1716878E-02  0.5800808E+05 -0.7680064E+04
  0.5200000E+01  0.1306613E+05 -0.2054644E+04 -0.2861953E-02  0.1896558E-02  0.5800808E+05 -0.1007014E+05
  0.5300000E+01  0.1306613E+05 -0.2338577E+04 -0.2861953E-02  0.1999177E-02  0.5800808E+05 -0.1146420E+05
  0.5400000E+01  0.1306613E+05 -0.2395969E+04 -0.2861953E-02  0.2015056E-02  0.5800808E+05 -0.1174362E+05
  0.5500000E+01  0.1306613E+05 -0.2225989E+04 -0.2861953E-02  0.1940523E-02  0.5800808E+05 -0.1090517E+05
  0.5600000E+01  0.1306613E+05 -0.1850549E+04 -0.2861953E-02  0.1778142E-02  0.5800808E+05 -0.9057430E+04
  0.5700000E+01  0.1306613E+05 -0.1311340E+04 -0.2861953E-02  0.1536465E-02  0.5800808E+05 -0.6406027E+04
  0.5800000E+01  0.1306613E+05 -0.6650466E+03 -0.2861953E-02  0.1229327E-02  0.5800808E+05 -0.3230146E+04
  0.5900000E+01  0.1306613E+05  0.2274944E+02 -0.2861953E-02  0.8747379E-03  0.5800808E+05  0.1475739E+03
  0.6000000E+01  0.1306613E+05  0.6843599E+03 -0.2861953E-02  0.4934943E-03  0.5800808E+05  0.3394390E+04
  0.6100000E+01  0.1306613E+05  0.1256706E+04 -0.2861953E-02  0.1076105E-03  0.5800808E+05  0.6200473E+04
  0.6200000E+01  0.1306613E+05  0.1687405E+04 -0.2861953E-02 -0.2612901E-03  0.5800808E+05  0.8308806E+04
  0.6300000E+01  0.1306613E+05  0.1939563E+04 -0.2861953E-02 -0.5935039E-03  0.5800808E+05  0.9538656E+04
  0.6400000E+01  0.1306613E+05  0.1994946E+04 -0.2861953E-02 -0.8725781E-03  0.5800808E+05  0.9801125E+04
  0.6500000E+01  0.1306613E+05  0.1855153E+04 -0.2861953E-02 -0.1086332E-02  0.5800808E+05  0.9104816E+04
  0.6600000E+01  0.1306613E+05  0.1540840E+04 -0.2861953E-02 -0.1227518E-02  0.5800808E+05  0.7551957E+04
  0.6700000E+01  0.1306613E+05  0.1089087E+04 -0.2861953E-02 -0.1294080E-02  0.5800808E+05  0.5325385E+04
  0.6800000E+01  0.1306613E+05  0.5492457E+03 -0.2861953E-02 -0.1289001E-02  0.5800808E+05  0.2668090E+04
  0.6900000E+01  0.1306613E+05 -0.2232459E+02 -0.2861953E-02 -0.1219787E-02  0.5800808E+05 -0.1427010E+03
  0.7000000E+01  0.1306613E+05 -0.5680234E+03 -0.2861953E-02 -0.1097630E-02  0.5800808E+05 -0.2823889E+04
  0.7100000E+01  0.1306613E+05 -0.1034699E+04 -0.2861953E-02 -0.9363577E-03  0.5800808E+05 -0.5114440E+04
  0.7200000E+01  0.1306613E+05 -0.1378791E+04 -0.2861953E-02 -0.7512398E-03  0.5800808E+05 -0.6800637E+04
  0.7300000E+01  0.1306613E+05 -0.1570282E+04 -0.2861953E-02 -0.5577889E-03  0.5800808E+05 -0.7735488E+04
  0.7400000E+01  0.1306613E+05 -0.1595283E+04 -0.2861953E-02 -0.3706249E-03  0.5800808E+05 -0.7851339E+04
  0.7500000E+01  0.1306613E+05 -0.1456896E+04 -0.2861953E-02 -0.2025018E-03  0.5800808E+05 -0.7164096E+04
  0.7600000E+01  0.1306613E+05 -0.1174380E+04 -0.2861953E-02 -0.6357749E-04  0.5800808E+05 -0.5769017E+04
  0.7700000E+01  0.1306613E+05 -0.7807559E+03 -0.2861953E-02  0.3905616E-04  0.5800808E+05 -0.3828929E+04
  0.7800000E+01  0.1306613E+05 -0.3191254E+03 -0.2861953E-02  0.1015401E-03  0.5800808E+05 -0.1556077E+04
  0.7900000E+01  0.1306613E+05  0.1619353E+03 -0.2861953E-02  0.1231572E-03  0.5800808E+05  0.8105553E+03
  0.8000000E+01  0.1306613E+05  0.6133242E+03 -0.2861953E-02  0.1059744E-03  0.5800808E+05  0.3029577E+04
  0.8100000E+01  0.1306613E+05  0.9903762E+03 -0.2861953E-02  0.5431396E-04  0.5800808E+05  0.4881563E+04
  0.8200000E+01  0.1306613E+05  0.1257121E+04 -0.2861953E-02 -0.2589848E-04  0.5800808E+05  0.6189983E+04
  0.8300000E+01  0.1306613E+05  0.1389672E+04 -0.2861953E-02 -0.1278380E-03  0.5800808E+05  0.6837820E+04
  0.8400001E+01  0.1306613E+05  0.1378245E+04 -0.2861953E-02 -0.2444408E-03  0.5800808E+05  0.6777425E+04
  0.8500000E+01  0.1306613E+05  0.1227762E+04 -0.2861953E-02 -0.3689959E-03  0.5800808E+05  0.6033475E+04
  0.8600000E+01  0.1306613E+05  0.9569453E+03 -0.2861953E-02 -0.4955874E-03  0.5800808E+05  0.4698452E+04
  0.8700000E+01  0.1306613E+05  0.5960963E+03 -0.2861953E-02 -0.6193576E-03  0.5800808E+05  0.2921683E+04
  0.8800000E+01  0.1306613E+05  0.1837407E+03 -0.2861953E-02 -0.7366167E-03  0.5800808E+05  0.8928188E+03
  0.8900001E+01  0.1306613E+05 -0.2373970E+03 -0.2861953E-02 -0.8447674E-03  0.5800808E+05 -0.1177970E+04
  0.9000000E+01  0.1306613E+05 -0.6248276E+03 -0.2861953E-02 -0.9420887E-03  0.5800808E+05 -0.3081811E+04
  0.9100000E+01  0.1306613E+05 -0.9404919E+03 -0.2861953E-02 -0.1027462E-02  0.5800808E+05 -0.4631737E+04
  0.9200000E+01  0.1306613E+05 -0.1154458E+04 -0.2861953E-02 -0.1100010E-02  0.5800808E+05 -0.5680833E+04
  0.9300000E+01  0.1306613E+05 -0.1247739E+04 -0.2861953E-02 -0.1158786E-02  0.5800808E+05 -0.6136085E+04
  0.9400001E+01  0.1306613E+05 -0.1213879E+04 -0.2861953E-02 -0.1202525E-02  0.5800808E+05 -0.5966115E+04
  0.9500000E+01  0.1306613E+05 -0.1059326E+04 -0.2861953E-02 -0.1229484E-02  0.5800808E+05 -0.5202992E+04
  0.9600000E+01  0.1306613E+05 -0.8024468E+03 -0.2861953E-02 -0.1237440E-02  0.5800808E+05 -0.3937343E+04
  0.9700000E+01  0.1306613E+05 -0.4714149E+03 -0.2861953E-02 -0.1223816E-02  0.5800808E+05 -0.2307942E+04
  0.9800000E+01  0.1306613E+05 -0.1011458E+03 -0.2861953E-02 -0.1185949E-02  0.5800808E+05 -0.4866243E+03
  0.9900001E+01  0.1306613E+05  0.2703385E+03 -0.2861953E-02 -0.1121448E-02  0.5800808E+05  0.1339611E+04
  0.1000000E+02  0.1306613E+05  0.6057945E+03 -0.2861953E-02 -0.1028630E-02  0.5800808E+05  0.2987705E+04
  0.1010000E+02  0.1306613E+05  0.8724797E+03 -0.2861953E-02 -0.9069523E-03  0.5800808E+05  0.4296820E+04
  0.1020000E+02  0.1306613E+05  0.1045289E+04 -0.2861953E-02 -0.7573992E-03  0.5800808E+05  0.5143750E+04
  0.1030000E+02  0.1306613E+05  0.1109117E+04 -0.2861953E-02 -0.5827628E-03  0.5800808E+05  0.5454518E+04
  0.1040000E+02  0.1306613E+05  0.1060111E+04 -0.2861953E-02 -0.3877691E-03  0.5800808E+05  0.5210488E+04
  0.1050000E+02  0.1306613E+05  0.9058340E+03 -0.2861953E-02 -0.1790162E-03  0.5800808E+05  0.4449148E+04
  0.1060000E+02  0.1306613E+05  0.6641918E+03 -0.2861953E-02  0.3529154E-04  0.5800808E+05  0.3258805E+04
  0.1070000E+02  0.1306613E+05  0.3614546E+03 -0.2861953E-02  0.2457931E-03  0.5800808E+05  0.1768820E+04
  0.1080000E+02  0.1306613E+05  0.2939400E+02 -0.2861953E-02  0.4426195E-03  0.5800808E+05  0.1355304E+03
  0.1090000E+02  0.1306613E+05 -0.2979802E+03 -0.2861953E-02  0.6161167E-03  0.5800808E+05 -0.1473814E+04
  0.1100000E+02  0.1306613E+05 -0.5879089E+03 -0.2861953E-02  0.7576803E-03  0.5800808E+05 -0.2898198E+04
  0.1110000E+02  0.1306613E+05 -0.8121330E+03 -0.2861953E-02  0.8605399E-03  0.5800808E+05 -0.3998829E+04
  0.1120000E+02  0.1306613E+05 -0.9496017E+03 -0.2861953E-02  0.9204596E-03  0.5800808E+05 -0.4672405E+04
  0.1130000E+02  0.1306613E+05 -0.9884540E+03 -0.2861953E-02  0.9362819E-03  0.5800808E+05 -0.4860856E+04
  0.1140000E+02  0.1306613E+05 -0.9269666E+03 -0.2861953E-02  0.9102334E-03  0.5800808E+05 -0.4555975E+04
  0.1150000E+02  0.1306613E+05 -0.7735467E+03 -0.2861953E-02  0.8479646E-03  0.5800808E+05 -0.3799351E+04
  0.1160000E+02  0.1306613E+05 -0.5456125E+03 -0.2861953E-02  0.7582835E-03  0.5800808E+05 -0.2676847E+04
  0.1170000E+02  0.1306613E+05 -0.2677103E+03 -0.2861953E-02  0.6526184E-03  0.5800808E+05 -0.1309315E+04
  0.1180000E+02  0.1306613E+05  0.3115831E+02 -0.2861953E-02  0.5441950E-03  0.5800808E+05  0.1605575E+03
  0.1190000E+02  0.1306613E+05  0.3204955E+03 -0.2861953E-02  0.4470292E-03  0.5800808E+05  0.1582802E+04
  0.1200000E+02  0.1306613E+05  0.5714158E+03 -0.2861953E-02  0.3747854E-03  0.5800808E+05  0.2815457E+04
  0.1210000E+02  0.1306613E+05  0.7595349E+03 -0.2861953E-02  0.3395870E-03  0.5800808E+05  0.3738764E+04
  0.1220000E+02  0.1306613E+05  0.8672629E+03 -0.2861953E-02  0.3509155E-03  0.5800808E+05  0.4266409E+04
  0.1230000E+02  0.1306613E+05  0.8854821E+03 -0.2861953E-02  0.4146429E-03  0.5800808E+05  0.4353789E+04
  0.1240000E+02  0.1306613E+05  0.8142433E+03 -0.2861953E-02  0.5323321E-03  0.5800808E+05  0.4001378E+04
  0.1250000E+02  0.1306613E+05  0.6626072E+03 -0.2861953E-02  0.7008447E-03  0.5800808E+05  0.3253938E+04
  0.1260000E+02  0.1306613E+05  0.4474716E+03 -0.2861953E-02  0.9123364E-03  0.5800808E+05  0.2194738E+04
  0.1270000E+02  0.1306613E+05  0.1918147E+03 -0.2861953E-02  0.1154593E-02  0.5800808E+05  0.9368842E+03
  0.1280000E+02  0.1306613E+05 -0.7784277E+02 -0.2861953E-02  0.1411780E-02  0.5800808E+05 -0.3891525E+03
  0.1290000E+02  0.1306613E+05 -0.3340868E+03 -0.2861953E-02  0.1665460E-02  0.5800808E+05 -0.1648582E+04
  0.1300000E+02  0.1306613E+05 -0.5514464E+03 -0.2861953E-02  0.1895910E-02  0.5800808E+05 -0.2716232E+04
  0.1310000E+02  0.1306613E+05 -0.7088624E+03 -0.2861953E-02  0.2083544E-02  0.5800808E+05 -0.3488682E+04
  0.1320000E+02  0.1306613E+05 -0.7917465E+03 -0.2861953E-02  0.2210380E-02  0.5800808E+05 -0.3894372E+04
  0.1330000E+02  0.1306613E+05 -0.7933008E+03 -0.2861953E-02  0.2261461E-02  0.5800808E+05 -0.3900062E+04
  0.1340000E+02  0.1306613E+05 -0.7150278E+03 -0.2861953E-02  0.2226028E-02  0.5800808E+05 -0.3513350E+04
  0.1350000E+02  0.1306613E+05 -0.5664308E+03 -0.2861953E-02  0.2098461E-02  0.5800808E+05 -0.2781136E+04
  0.1360000E+02  0.1306613E+05 -0.3638878E+03 -0.2861953E-02  0.1878815E-02  0.5800808E+05 -0.1784109E+04
  0.1370000E+02  0.1306613E+05 -0.1288602E+03 -0.2861953E-02  0.1572963E-02  0.5800808E+05 -0.6278908E+03
  0.1380000E+02  0.1306613E+05  0.1143615E+03 -0.2861953E-02  0.1192299E-02  0.5800808E+05  0.5680302E+03
  0.1390000E+02  0.1306613E+05  0.3411380E+03 -0.2861953E-02  0.7530482E-03  0.5800808E+05  0.1682520E+04
  0.1400000E+02  0.1306613E+05  0.5290126E+03 -0.2861953E-02  0.2752133E-03  0.5800808E+05  0.2605227E+04
  0.1410000E+02  0.1306613E+05  0.6598825E+03 -0.2861953E-02 -0.2187665E-03  0.5800808E+05  0.3247256E+04
  0.1420000E+02  0.1306613E+05  0.7217182E+03 -0.2861953E-02 -0.7054848E-03  0.5800808E+05  0.3549619E+04
  0.1430000E+02  0.1306613E+05  0.7097010E+03 -0.2861953E-02 -0.1162160E-02  0.5800808E+05  0.3488791E+04
  0.1440000E+02  0.1306613E+05  0.6265197E+03 -0.2861953E-02 -0.1568080E-02  0.5800808E+05  0.3078168E+04
  0.1450000E+02  0.1306613E+05  0.4819741E+03 -0.2861953E-02 -0.1905949E-02  0.5800808E+05  0.2366095E+04
  0.1460000E+02  0.1306613E+05  0.2918178E+03 -0.2861953E-02 -0.2162906E-02  0.5800808E+05  0.1430165E+04
  0.1470000E+02  0.1306613E+05  0.7611476E+02 -0.2861953E-02 -0.2331204E-02  0.5800808E+05  0.3691114E+03
  0.1480000E+02  0.1306613E+05 -0.1429608E+03 -0.2861953E-02 -0.2408518E-02  0.5800808E+05 -0.7080001E+03
  0.1490000E+02  0.1306613E+05 -0.3432651E+03 -0.2861953E-02 -0.2397823E-02  0.5800808E+05 -0.1692308E+04
  0.1500000E+02  0.1306613E+05 -0.5050519E+03 -0.2861953E-02 -0.2306892E-02  0.5800808E+05 -0.2486793E+04
  0.1510000E+02  0.1306613E+05 -0.6128019E+03 -0.2861953E-02 -0.2147478E-02  0.5800808E+05 -0.3015258E+04
  0.1520000E+02  0.1306613E+05 -0.6567536E+03 -0.2861953E-02 -0.1934235E-02  0.5800808E+05 -0.3229844E+04
  0.1530000E+02  0.1306613E+05 -0.6337607E+03 -0.2861953E-02 -0.1683469E-02  0.5800808E+05 -0.3115239E+04
  0.1540000E+02  0.1306613E+05 -0.5474659E+03 -0.2861953E-02 -0.1411877E-02  0.5800808E+05 -0.2689513E+04
  0.1550000E+02  0.1306613E+05 -0.4078177E+03 -0.2861953E-02 -0.1135324E-02  0.5800808E+05 -0.2001718E+04
  0.1560000E+02  0.1306613E+05 -0.2299022E+03 -0.2861953E-02 -0.8677606E-03  0.5800808E+05 -0.1126145E+04
  0.1570000E+02  0.1306613E+05 -0.3241519E+02 -0.2861953E-02 -0.6204277E-03  0.5800808E+05 -0.1547853E+03
  0.1580000E+02  0.1306613E+05  0.1644123E+03 -0.2861953E-02 -0.4013158E-03  0.5800808E+05  0.8128596E+03
  0.1590000E+02  0.1306613E+05  0.3407898E+03 -0.2861953E-02 -0.2149674E-03  0.5800808E+05  0.1679508E+04
Zone t="DoF    2",I=   160,F=POINT
  0.0000000E+00 -0.7554156E-03  0.1872164E-02  0.4162763E+05  0.7719900E+05 -0.3734602E-02  0.1014216E-01
  0.1000000E+00 -0.7554156E-03  0.1807714E-02  0.4162763E+05  0.7547904E+05 -0.3734602E-02  0.9796852E-02
  0.2000000E+00 -0.7554156E-03  0.1619086E-02  0.4162763E+05  0.7042430E+05 -0.3734602E-02  0.8786897E-02
  0.3000000E+00 -0.7554156E-03  0.1320095E-02  0.4162763E+05  0.6234270E+05 -0.3734602E-02  0.7188180E-02
  0.4000000E+00 -0.7554156E-03  0.9326062E-03  0.4162763E+05  0.5172287E+05 -0.3734602E-02  0.5120562E-02
  0.5000000E+00 -0.7554156E-03  0.4848929E-03  0.4162763E+05  0.3919947E+05 -0.3734602E-02  0.2738504E-02
  0.6000000E+00 -0.7554156E-03  0.9515753E-05  0.4162763E+05  0.2550839E+05 -0.3734602E-02  0.2190235E-03
  0.7000000E+00 -0.7554156E-03 -0.4591145E-03  0.4162763E+05  0.1143536E+05 -0.3734602E-02 -0.2252054E-02
  0.8000000E+00 -0.7554156E-03 -0.8873050E-03  0.4162763E+05 -0.2238071E+04 -0.3734602E-02 -0.4494484E-02
  0.9000000E+00 -0.7554156E-03 -0.1244579E-02  0.4162763E+05 -0.1478686E+05 -0.3734602E-02 -0.6347424E-02
  0.1000000E+01 -0.7554156E-03 -0.1505925E-02  0.4162763E+05 -0.2558964E+05 -0.3734602E-02 -0.7681665E-02
  0.1100000E+01 -0.7554156E-03 -0.1653611E-02  0.4162763E+05 -0.3416686E+05 -0.3734602E-02 -0.8409258E-02
  0.1200000E+01 -0.7554156E-03 -0.1678450E-02  0.4162763E+05 -0.4020740E+05 -0.3734602E-02 -0.8489811E-02
  0.1300000E+01 -0.7554156E-03 -0.1580398E-02  0.4162763E+05 -0.4358200E+05 -0.3734602E-02 -0.7933002E-02
  0.1400000E+01 -0.7554156E-03 -0.1368475E-02  0.4162763E+05 -0.4434277E+05 -0.3734602E-02 -0.6797114E-02
  0.1500000E+01 -0.7554156E-03 -0.1059984E-02  0.4162763E+05 -0.4270942E+05 -0.3734602E-02 -0.5183765E-02
  0.1600000E+01 -0.7554156E-03 -0.6791331E-03  0.4162763E+05 -0.3904359E+05 -0.3734602E-02 -0.3229308E-02
  0.1700000E+01 -0.7554156E-03 -0.2551334E-03  0.4162763E+05 -0.3381386E+05 -0.3734602E-02 -0.1093604E-02
  0.1800000E+01 -0.7554156E-03  0.1800447E-03  0.4162763E+05 -0.2755451E+05 -0.3734602E-02  0.1052885E-02
  0.1900000E+01 -0.7554156E-03  0.5941069E-03  0.4162763E+05 -0.2082153E+05 -0.3734602E-02  0.3042645E-02
  0.2000000E+01 -0.7554156E-03  0.9568547E-03  0.4162763E+05 -0.1414950E+05 -0.3734602E-02  0.4724185E-02
  0.2100000E+01 -0.7554156E-03  0.1242416E-02  0.4162763E+05 -0.8012699E+04 -0.3734602E-02  0.5973618E-02
  0.2200000E+01 -0.7554156E-03  0.1431113E-02  0.4162763E+05 -0.2793493E+04 -0.3734602E-02  0.6703830E-02
  0.2300000E+01 -0.7554156E-03  0.1510837E-02  0.4162763E+05  0.1240135E+04 -0.3734602E-02  0.6870588E-02
  0.2400000E+01 -0.7554156E-03  0.1477812E-02  0.4162763E+05  0.3946059E+04 -0.3734602E-02  0.6475036E-02
  0.2500000E+01 -0.7554156E-03  0.1336726E-02  0.4162763E+05  0.5308640E+04 -0.3734602E-02  0.5562608E-02
  0.2600000E+01 -0.7554156E-03  0.1100206E-02  0.4162763E+05  0.5428796E+04 -0.3734602E-02  0.4218359E-02
  0.2700000E+01 -0.7554156E-03  0.7877008E-03  0.4162763E+05  0.4504962E+04 -0.3734602E-02  0.2559271E-02
  0.2800000E+01 -0.7554156E-03  0.4238633E-03  0.4162763E+05  0.2807195E+04 -0.3734602E-02  0.7241560E-03
  0.2900000E+01 -0.7554156E-03  0.3656867E-04  0.4162763E+05  0.6469402E+03 -0.3734602E-02 -0.1137961E-02
  0.3000000E+01 -0.7554156E-03 -0.3452658E-03  0.4162763E+05 -0.1654570E+04 -0.3734602E-02 -0.2879954E-02
  0.3100000E+01 -0.7554156E-03 -0.6939052E-03  0.4162763E+05 -0.3796550E+04 -0.3734602E-02 -0.4368326E-02
  0.3200000E+01 -0.7554156E-03 -0.9848607E-03  0.4162763E+05 -0.5524834E+04 -0.3734602E-02 -0.5493460E-02
  0.3300000E+01 -0.7554156E-03 -0.1198670E-02  0.4162763E+05 -0.6651989E+04 -0.3734602E-02 -0.6177742E-02
  0.3400000E+01 -0.7554156E-03 -0.1322232E-02  0.4162763E+05 -0.7069853E+04 -0.3734602E-02 -0.6380820E-02
  0.3500000E+01 -0.7554156E-03 -0.1349621E-02  0.4162763E+05 -0.6753856E+04 -0.3734602E-02 -0.6101738E-02
  0.3600000E+01 -0.7554156E-03 -0.1282320E-02  0.4162763E+05 -0.5759208E+04 -0.3734602E-02 -0.5377778E-02
  0.3700000E+01 -0.7554156E-03 -0.1128876E-02  0.4162763E+05 -0.4209779E+04 -0.3734602E-02 -0.4280271E-02
  0.3800000E+01 -0.7554156E-03 -0.9040088E-03  0.4162763E+05 -0.2281129E+04 -0.3734602E-02 -0.2907736E-02
  0.3900000E+01 -0.7554156E-03 -0.6272701E-03  0.4162763E+05 -0.1795927E+03 -0.3734602E-02 -0.1376998E-02
  0.4000000E+01 -0.7554156E-03 -0.3213704E-03  0.4162763E+05  0.1880310E+04 -0.3734602E-02  0.1868224E-03
  0.4100000E+01 -0.7554156E-03 -0.1029986E-04  0.4162763E+05  0.3698027E+04 -0.3734602E-02  0.1660784E-02
  0.4200000E+01 -0.7554156E-03  0.2825783E-03  0.4162763E+05  0.5106462E+04 -0.3734602E-02  0.2933973E-02
  0.4300000E+01 -0.7554156E-03  0.5363165E-03  0.4162763E+05  0.5987102E+04 -0.3734602E-02  0.3916040E-02
  0.4400000E+01 -0.7554156E-03  0.7339313E-03  0.4162763E+05  0.6279610E+04 -0.3734602E-02  0.4543780E-02
  0.4500000E+01 -0.7554156E-03  0.8635670E-03  0.4162763E+05  0.5985169E+04 -0.3734602E-02  0.4785188E-02
  0.4600000E+01 -0.7554156E-03  0.9192100E-03  0.4162763E+05  0.5163440E+04 -0.3734602E-02  0.4640777E-02
  0.4700000E+01 -0.7554156E-03  0.9009089E-03  0.4162763E+05  0.3924016E+04 -0.3734602E-02  0.4142165E-02
  0.4800000E+01 -0.7554156E-03  0.8145031E-03  0.4162763E+05  0.2413147E+04 -0.3734602E-02  0.3348139E-02
  0.4900000E+01 -0.7554156E-03  0.6708875E-03  0.4162763E+05  0.7974958E+03 -0.3734602E-02  0.2338573E-02
  0.5000000E+01 -0.7554156E-03  0.4849039E-03  0.4162763E+05 -0.7535652E+03 -0.3734602E-02  0.1206860E-02
  0.5100000E+01 -0.7554156E-03  0.2739569E-03  0.4162763E+05 -0.2085035E+04 -0.3734602E-02  0.5152587E-04
  0.5200000E+01 -0.7554156E-03  0.5648225E-04  0.4162763E+05 -0.3071316E+04 -0.3734602E-02 -0.1032229E-02
  0.5300000E+01 -0.7554156E-03 -0.1496009E-03  0.4162763E+05 -0.3627640E+04 -0.3734602E-02 -0.1960316E-02
  0.5400000E+01 -0.7554156E-03 -0.3283293E-03  0.4162763E+05 -0.3717028E+04 -0.3734602E-02 -0.2666279E-02
  0.5500000E+01 -0.7554156E-03 -0.4668977E-03  0.4162763E+05 -0.3352008E+04 -0.3734602E-02 -0.3105966E-02
  0.5600000E+01 -0.7554156E-03 -0.5565504E-03  0.4162763E+05 -0.2591443E+04 -0.3734602E-02 -0.3260103E-02
  0.5700000E+01 -0.7554156E-03 -0.5930840E-03  0.4162763E+05 -0.1532703E+04 -0.3734602E-02 -0.3134574E-02
  0.5800000E+01 -0.7554156E-03 -0.5769491E-03  0.4162763E+05 -0.3002887E+03 -0.3734602E-02 -0.2758551E-02
  0.5900000E+01 -0.7554156E-03 -0.5129518E-03  0.4162763E+05  0.9679058E+03 -0.3734602E-02 -0.2180658E-02
  0.6000000E+01 -0.7554156E-03 -0.4096020E-03  0.4162763E+05  0.2135260E+04 -0.3734602E-02 -0.1463666E-02
  0.6100000E+01 -0.7554156E-03 -0.2781792E-03  0.4162763E+05  0.3080338E+04 -0.3734602E-02 -0.6782014E-03
  0.6200000E+01 -0.7554156E-03 -0.1316131E-03  0.4162763E+05  0.3708914E+04 -0.3734602E-02  0.1038765E-03
  0.6300000E+01 -0.7554156E-03  0.1671092E-04  0.4162763E+05  0.3962736E+04 -0.3734602E-02  0.8158361E-03
  0.6400000E+01 -0.7554156E-03  0.1541400E-03  0.4162763E+05  0.3824416E+04 -0.3734602E-02  0.1401696E-02
  0.6500000E+01 -0.7554156E-03  0.2697836E-03  0.4162763E+05  0.3317965E+04 -0.3734602E-02  0.1820458E-02
  0.6600000E+01 -0.7554156E-03  0.3553513E-03  0.4162763E+05  0.2505041E+04 -0.3734602E-02  0.2048829E-02
  0.6700000E+01 -0.7554156E-03  0.4057034E-03  0.4162763E+05  0.1477519E+04 -0.3734602E-02  0.2082130E-02
  0.6800000E+01 -0.7554156E-03  0.4190931E-03  0.4162763E+05  0.3471934E+03 -0.3734602E-02  0.1933472E-02
  0.6900000E+01 -0.7554156E-03  0.3970909E-03  0.4162763E+05 -0.7663943E+03 -0.3734602E-02  0.1631328E-02
  0.7000000E+01 -0.7554156E-03  0.3442156E-03  0.4162763E+05 -0.1748493E+04 -0.3734602E-02  0.1215817E-02
  0.7100000E+01 -0.7554156E-03  0.2673277E-03  0.4162763E+05 -0.2500827E+04 -0.3734602E-02  0.7341595E-03
  0.7200000E+01 -0.7554156E-03  0.1748441E-03  0.4162763E+05 -0.2951429E+04 -0.3734602E-02  0.2357173E-03
  0.7300000E+01 -0.7554156E-03  0.7587092E-04  0.4162763E+05 -0.3061355E+04 -0.3734602E-02 -0.2328198E-03
  0.7400000E+01 -0.7554156E-03 -0.2067735E-04  0.4162763E+05 -0.2828012E+04 -0.3734602E-02 -0.6317105E-03
  0.7500000E+01 -0.7554156E-03 -0.1068706E-03  0.4162763E+05 -0.2284547E+04 -0.3734602E-02 -0.9314560E-03
  0.7600000E+01 -0.7554156E-03 -0.1764105E-03  0.4162763E+05 -0.1495624E+04 -0.3734602E-02 -0.1114865E-02
  0.7700000E+01 -0.7554156E-03 -0.2250736E-03  0.4162763E+05 -0.5500359E+03 -0.3734602E-02 -0.1177760E-02
  0.7800000E+01 -0.7554156E-03 -0.2509205E-03  0.4162763E+05  0.4489438E+03 -0.3734602E-02 -0.1128307E-02
  0.7900000E+01 -0.7554156E-03 -0.2542695E-03  0.4162763E+05  0.1394634E+04 -0.3734602E-02 -0.9851321E-03
  0.8000000E+01 -0.7554156E-03 -0.2374475E-03  0.4162763E+05  0.2187942E+04 -0.3734602E-02 -0.7744607E-03
  0.8100000E+01 -0.7554156E-03 -0.2043561E-03  0.4162763E+05  0.2747621E+04 -0.3734602E-02 -0.5266347E-03
  0.8200000E+01 -0.7554156E-03 -0.1599214E-03  0.4162763E+05  0.3018202E+04 -0.3734602E-02 -0.2724357E-03
  0.8300000E+01 -0.7554156E-03 -0.1094732E-03  0.4162763E+05  0.2975376E+04 -0.3734602E-02 -0.3954380E-04
  0.8400001E+01 -0.7554156E-03 -0.5814245E-04  0.4162763E+05  0.2627892E+04 -0.3734602E-02  0.1503963E-03
  0.8500000E+01 -0.7554156E-03 -0.1032718E-04  0.4162763E+05  0.2016165E+04 -0.3734602E-02  0.2839008E-03
  0.8600000E+01 -0.7554156E-03  0.3071635E-04  0.4162763E+05  0.1207490E+04 -0.3734602E-02  0.3566930E-03
  0.8700000E+01 -0.7554156E-03  0.6311098E-04  0.4162763E+05  0.2887271E+03 -0.3734602E-02  0.3736228E-03
  0.8800000E+01 -0.7554156E-03  0.8641875E-04  0.4162763E+05 -0.6430674E+03 -0.3734602E-02  0.3474890E-03
  0.8900001E+01 -0.7554156E-03  0.1015256E-03  0.4162763E+05 -0.1490688E+04 -0.3734602E-02  0.2969849E-03
  0.9000000E+01 -0.7554156E-03  0.1103471E-03  0.4162763E+05 -0.2167047E+04 -0.3734602E-02  0.2438450E-03
  0.9100000E+01 -0.7554156E-03  0.1154522E-03  0.4162763E+05 -0.2603842E+04 -0.3734602E-02  0.2098541E-03
  0.9200000E+01 -0.7554156E-03  0.1195943E-03  0.4162763E+05 -0.2758444E+04 -0.3734602E-02  0.2137226E-03
  0.9300000E+01 -0.7554156E-03  0.1252399E-03  0.4162763E+05 -0.2618000E+04 -0.3734602E-02  0.2683882E-03
  0.9400001E+01 -0.7554156E-03  0.1341586E-03  0.4162763E+05 -0.2200331E+04 -0.3734602E-02  0.3790540E-03
  0.9500000E+01 -0.7554156E-03  0.1471054E-03  0.4162763E+05 -0.1551795E+04 -0.3734602E-02  0.5420993E-03
  0.9600000E+01 -0.7554156E-03  0.1636490E-03  0.4162763E+05 -0.7421206E+03 -0.3734602E-02  0.7450962E-03
  0.9700000E+01 -0.7554156E-03  0.1821607E-03  0.4162763E+05  0.1429928E+03 -0.3734602E-02  0.9678526E-03
  0.9800000E+01 -0.7554156E-03  0.1999711E-03  0.4162763E+05  0.1010889E+04 -0.3734602E-02  0.1184477E-02
  0.9900001E+01 -0.7554156E-03  0.2136701E-03  0.4162763E+05  0.1771561E+04 -0.3734602E-02  0.1366120E-02
  0.1000000E+02 -0.7554156E-03  0.2195344E-03  0.4162763E+05  0.2346837E+04 -0.3734602E-02  0.1484277E-02
  0.1010000E+02 -0.7554156E-03  0.2140067E-03  0.4162763E+05  0.2678410E+04 -0.3734602E-02  0.1514088E-02
  0.1020000E+02 -0.7554156E-03  0.1941988E-03  0.4162763E+05  0.2733503E+04 -0.3734602E-02  0.1437457E-02
  0.1030000E+02 -0.7554156E-03  0.1583315E-03  0.4162763E+05  0.2508113E+04 -0.3734602E-02  0.1245486E-02
  0.1040000E+02 -0.7554156E-03  0.1060791E-03  0.4162763E+05  0.2027092E+04 -0.3734602E-02  0.9400409E-03
  0.1050000E+02 -0.7554156E-03  0.3877121E-04  0.4162763E+05  0.1341466E+04 -0.3734602E-02  0.5342623E-03
  0.1060000E+02 -0.7554156E-03 -0.4060486E-04  0.4162763E+05  0.5228330E+03 -0.3734602E-02  0.5178156E-04
  0.1070000E+02 -0.7554156E-03 -0.1275603E-03  0.4162763E+05 -0.3439518E+03 -0.3734602E-02 -0.4750529E-03
  0.1080000E+02 -0.7554156E-03 -0.2164649E-03  0.4162763E+05 -0.1169722E+04 -0.3734602E-02 -0.1008074E-02
  0.1090000E+02 -0.7554156E-03 -0.3010273E-03  0.4162763E+05 -0.1869980E+04 -0.3734602E-02 -0.1506752E-02
  0.1100000E+02 -0.7554156E-03 -0.3748924E-03  0.4162763E+05 -0.2373607E+04 -0.3734602E-02 -0.1932124E-02
  0.1110000E+02 -0.7554156E-03 -0.4322603E-03  0.4162763E+05 -0.2630028E+04 -0.3734602E-02 -0.2250597E-02
  0.1120000E+02 -0.7554156E-03 -0.4684797E-03  0.4162763E+05 -0.2614180E+04 -0.3734602E-02 -0.2437316E-02
  0.1130000E+02 -0.7554156E-03 -0.4805545E-03  0.4162763E+05 -0.2328917E+04 -0.3734602E-02 -0.2478782E-02
  0.1140000E+02 -0.7554156E-03 -0.4674777E-03  0.4162763E+05 -0.1804565E+04 -0.3734602E-02 -0.2374264E-02
  0.1150000E+02 -0.7554156E-03 -0.4303888E-03  0.4162763E+05 -0.1095688E+04 -0.3734602E-02 -0.2136039E-02
  0.1160000E+02 -0.7554156E-03 -0.3725033E-03  0.4162763E+05 -0.2752990E+03 -0.3734602E-02 -0.1788240E-02
  0.1170000E+02 -0.7554156E-03 -0.2988252E-03  0.4162763E+05  0.5725120E+03 -0.3734602E-02 -0.1364502E-02