VARIABLES="w (rad/s)"
"abs(F   1   1)" "angle(F   1   1)"
"abs(F   1   2)" "angle(F   1   2)"
"abs(F   1   3)" "angle(F   1   3)"
Zone t="Diffraction force - beta =   0.000 deg",I=    32,F=POINT
  0.1000000E+00  0.1249075E+04 -0.1570796E+01  0.1566545E+04 -0.3141589E+01  0.1231193E+04  0.1570796E+01
  0.2000000E+00  0.5013914E+04 -0.1570781E+01  0.6184286E+04 -0.3141591E+01  0.4955346E+04  0.1570812E+01
  0.3000000E+00  0.1116624E+05 -0.1570632E+01  0.1380309E+05 -0.3141463E+01  0.1105956E+05  0.1570963E+01
  0.4000000E+00  0.1958647E+05 -0.1569924E+01  0.2430843E+05 -0.3140556E+01  0.1946385E+05  0.1571678E+01
  0.5000000E+00  0.3014612E+05 -0.1567707E+01  0.3763424E+05 -0.3137264E+01  0.3007781E+05  0.1573917E+01
  0.6000001E+00  0.4273174E+05 -0.1562362E+01  0.5377089E+05 -0.3128749E+01  0.4282750E+05  0.1579317E+01
  0.7000000E+00  0.5724305E+05 -0.1551617E+01  0.7276470E+05 -0.3110982E+01  0.5765690E+05  0.1590176E+01
  0.8000001E+00  0.7363473E+05 -0.1532739E+01  0.9456504E+05 -0.3079120E+01  0.7454914E+05  0.1609269E+01
  0.9000000E+00  0.9171637E+05 -0.1502782E+01  0.1188182E+06 -0.3028177E+01  0.9328949E+05  0.1639627E+01
  0.1000000E+01  0.1112747E+06 -0.1458938E+01  0.1445628E+06 -0.2953836E+01  0.1136522E+06  0.1684185E+01
  0.1100000E+01  0.1317473E+06 -0.1398630E+01  0.1698440E+06 -0.2853611E+01  0.1349207E+06  0.1745764E+01
  0.1200000E+01  0.1525619E+06 -0.1319672E+01  0.1917712E+06 -0.2727839E+01  0.1563380E+06  0.1826964E+01
  0.1300000E+01  0.1725785E+06 -0.1220568E+01  0.2069645E+06 -0.2580826E+01  0.1764965E+06  0.1929864E+01
  0.1400000E+01  0.1905009E+06 -0.1100486E+01  0.2128930E+06 -0.2420070E+01  0.1936373E+06  0.2056326E+01
  0.1500000E+01  0.2047720E+06 -0.9597988E+00  0.2089810E+06 -0.2254363E+01  0.2058309E+06  0.2207459E+01
  0.1600000E+01  0.2137811E+06 -0.8000852E+00  0.1969173E+06 -0.2090518E+01  0.2112323E+06  0.2383788E+01
  0.1700000E+01  0.2165727E+06 -0.6244727E+00  0.1795505E+06 -0.1931677E+01  0.2088008E+06  0.2585623E+01
  0.1800000E+01  0.2127678E+06 -0.4373898E+00  0.1597456E+06 -0.1777416E+01  0.1986265E+06  0.2813293E+01
  0.1900000E+01  0.2030507E+06 -0.2439501E+00  0.1397451E+06 -0.1625018E+01  0.1824655E+06  0.3067773E+01
  0.2000000E+01  0.1889212E+06 -0.4897958E-01  0.1210035E+06 -0.1471225E+01  0.1632796E+06 -0.2931525E+01
  0.2100000E+01  0.1721638E+06  0.1434365E+00  0.1043774E+06 -0.1313231E+01  0.1445077E+06 -0.2615727E+01
  0.2200000E+01  0.1544393E+06  0.3302441E+00  0.9018753E+05 -0.1149974E+01  0.1292507E+06 -0.2270903E+01
  0.2300000E+01  0.1369645E+06  0.5087830E+00  0.7846363E+05 -0.9829153E+00  0.1193205E+06 -0.1913777E+01
  0.2400000E+01  0.1204856E+06  0.6768299E+00  0.6901179E+05 -0.8159701E+00  0.1145233E+06 -0.1569813E+01
  0.2500000E+01  0.1053580E+06  0.8324070E+00  0.6138920E+05 -0.6548882E+00  0.1130774E+06 -0.1260918E+01
  0.2600000E+01  0.9179587E+05  0.9733446E+00  0.5514543E+05 -0.5051246E+00  0.1128160E+06 -0.9960496E+00
  0.2700000E+01  0.7977808E+05  0.1098420E+01  0.4983161E+05 -0.3713307E+00  0.1121522E+06 -0.7712960E+00
  0.2800000E+01  0.6922966E+05  0.1206121E+01  0.4510534E+05 -0.2551031E+00  0.1101568E+06 -0.5808291E+00
  0.2900000E+01  0.6002688E+05  0.1295972E+01  0.4071220E+05 -0.1577639E+00  0.1064529E+06 -0.4171712E+00
  0.3000000E+01  0.5206878E+05  0.1367149E+01  0.3655682E+05 -0.7837405E-01  0.1010769E+06 -0.2757306E+00
  0.3100000E+01  0.4525375E+05  0.1421368E+01  0.3259512E+05 -0.1552919E-01  0.9457424E+05 -0.1509168E+00
  0.3200000E+01  0.3948235E+05  0.1461411E+01  0.2882131E+05  0.3392762E-01  0.8747812E+05 -0.3911524E-01
