 VARIABLES="Time (s)"
"AddedMass    1" "IRF    1"
"AddedMass    2" "IRF    2"
"AddedMass    3" "IRF    3"
Zone t="DoF    1",I=   160,F=POINT
  0.0000000E+00  0.5970034E+03  0.3168030E+03 -0.3837805E-04 -0.1971153E-05  0.2199063E+04  0.1212676E+04
  0.1000000E+00  0.5970034E+03  0.3048809E+03 -0.3837805E-04 -0.2346278E-05  0.2199063E+04  0.1167003E+04
  0.2000000E+00  0.5970034E+03  0.2700694E+03 -0.3837805E-04 -0.3444914E-05  0.2199063E+04  0.1033643E+04
  0.3000000E+00  0.5970034E+03  0.2151530E+03 -0.3837805E-04 -0.5189749E-05  0.2199063E+04  0.8232708E+03
  0.4000000E+00  0.5970034E+03  0.1445139E+03 -0.3837805E-04 -0.7461373E-05  0.2199063E+04  0.5526817E+03
  0.5000000E+00  0.5970034E+03  0.6376609E+02 -0.3837805E-04 -0.1011098E-04  0.2199063E+04  0.2433947E+03
  0.6000000E+00  0.5970034E+03 -0.2071029E+02 -0.3837805E-04 -0.1297577E-04  0.2199063E+04 -0.8013811E+02
  0.7000000E+00  0.5970034E+03 -0.1022970E+03 -0.3837805E-04 -0.1589477E-04  0.2199063E+04 -0.3925534E+03
  0.8000000E+00  0.5970034E+03 -0.1746817E+03 -0.3837805E-04 -0.1872297E-04  0.2199063E+04 -0.6696635E+03
  0.9000000E+00  0.5970034E+03 -0.2323712E+03 -0.3837805E-04 -0.2134184E-04  0.2199063E+04 -0.8904240E+03
  0.1000000E+01  0.5970034E+03 -0.2711325E+03 -0.3837805E-04 -0.2366462E-04  0.2199063E+04 -0.1038623E+04
  0.1100000E+01  0.5970034E+03 -0.2883224E+03 -0.3837805E-04 -0.2563576E-04  0.2199063E+04 -0.1104148E+04
  0.1200000E+01  0.5970034E+03 -0.2830810E+03 -0.3837805E-04 -0.2722459E-04  0.2199063E+04 -0.1083719E+04
  0.1300000E+01  0.5970034E+03 -0.2563725E+03 -0.3837805E-04 -0.2841391E-04  0.2199063E+04 -0.9810551E+03
  0.1400000E+01  0.5970034E+03 -0.2108733E+03 -0.3837805E-04 -0.2918585E-04  0.2199063E+04 -0.8064332E+03
  0.1500000E+01  0.5970034E+03 -0.1507177E+03 -0.3837805E-04 -0.2950655E-04  0.2199063E+04 -0.5757175E+03
  0.1600000E+01  0.5970034E+03 -0.8112533E+02 -0.3837805E-04 -0.2931298E-04  0.2199063E+04 -0.3089296E+03
  0.1700000E+01  0.5970034E+03 -0.7945247E+01 -0.3837805E-04 -0.2850444E-04  0.2199063E+04 -0.2849723E+02
  0.1800000E+01  0.5970034E+03  0.6284536E+02 -0.3837805E-04 -0.2694047E-04  0.2199063E+04  0.2426666E+03
  0.1900000E+01  0.5970034E+03  0.1256418E+03 -0.3837805E-04 -0.2444737E-04  0.2199063E+04  0.4830839E+03
  0.2000000E+01  0.5970034E+03  0.1756700E+03 -0.3837805E-04 -0.2083336E-04  0.2199063E+04  0.6744686E+03
  0.2100000E+01  0.5970034E+03  0.2093636E+03 -0.3837805E-04 -0.1591226E-04  0.2199063E+04  0.8031702E+03
  0.2200000E+01  0.5970034E+03  0.2246289E+03 -0.3837805E-04 -0.9533154E-05  0.2199063E+04  0.8611896E+03
  0.2300000E+01  0.5970034E+03  0.2209782E+03 -0.3837805E-04 -0.1613826E-05  0.2199063E+04  0.8466869E+03
  0.2400000E+01  0.5970034E+03  0.1995205E+03 -0.3837805E-04  0.7826147E-05  0.2199063E+04  0.7639468E+03
  0.2500000E+01  0.5970034E+03  0.1628180E+03 -0.3837805E-04  0.1863690E-04  0.2199063E+04  0.6228229E+03
  0.2600000E+01  0.5970034E+03  0.1146194E+03 -0.3837805E-04  0.3051861E-04  0.2199063E+04  0.4377140E+03
  0.2700000E+01  0.5970034E+03  0.5950029E+02 -0.3837805E-04  0.4301428E-04  0.2199063E+04  0.2261840E+03
  0.2800000E+01  0.5970034E+03  0.2441264E+01 -0.3837805E-04  0.5551816E-04  0.2199063E+04  0.7342168E+01
  0.2900000E+01  0.5970034E+03 -0.5161522E+02 -0.3837805E-04  0.6730127E-04  0.2199063E+04 -0.1998571E+03
  0.3000000E+01  0.5970034E+03 -0.9819028E+02 -0.3837805E-04  0.7755322E-04  0.2199063E+04 -0.3782462E+03
  0.3100000E+01  0.5970034E+03 -0.1336417E+03 -0.3837805E-04  0.8543964E-04  0.2199063E+04 -0.5138741E+03
  0.3200000E+01  0.5970034E+03 -0.1554494E+03 -0.3837805E-04  0.9016977E-04  0.2199063E+04 -0.5971003E+03
  0.3300000E+01  0.5970034E+03 -0.1623941E+03 -0.3837805E-04  0.9107032E-04  0.2199063E+04 -0.6232786E+03
  0.3400000E+01  0.5970034E+03 -0.1546144E+03 -0.3837805E-04  0.8765828E-04  0.2199063E+04 -0.5929728E+03
  0.3500000E+01  0.5970034E+03 -0.1335417E+03 -0.3837805E-04  0.7970552E-04  0.2199063E+04 -0.5117054E+03
  0.3600000E+01  0.5970034E+03 -0.1017221E+03 -0.3837805E-04  0.6728892E-04  0.2199063E+04 -0.3892732E+03
  0.3700000E+01  0.5970034E+03 -0.6254604E+02 -0.3837805E-04  0.5081866E-04  0.2199063E+04 -0.2387055E+03
  0.3800000E+01  0.5970034E+03 -0.1991077E+02 -0.3837805E-04  0.3104096E-04  0.2199063E+04 -0.7496992E+02
  0.3900000E+01  0.5970034E+03  0.2215046E+02 -0.3837805E-04  0.9011733E-05  0.2199063E+04  0.8645236E+02
  0.4000000E+01  0.5970034E+03  0.5983695E+02 -0.3837805E-04 -0.1395856E-04  0.2199063E+04  0.2309808E+03
  0.4100000E+01  0.5970034E+03  0.8991669E+02 -0.3837805E-04 -0.3638709E-04  0.2199063E+04  0.3462247E+03
  0.4200000E+01  0.5970034E+03  0.1099969E+03 -0.3837805E-04 -0.5672225E-04  0.2199063E+04  0.4230203E+03
  0.4300000E+01  0.5970034E+03  0.1187085E+03 -0.3837805E-04 -0.7346091E-04  0.2199063E+04  0.4561377E+03
  0.4400000E+01  0.5970034E+03  0.1157913E+03 -0.3837805E-04 -0.8527181E-04  0.2199063E+04  0.4446042E+03
  0.4500000E+01  0.5970034E+03  0.1020728E+03 -0.3837805E-04 -0.9111238E-04  0.2199063E+04  0.3916233E+03
  0.4600000E+01  0.5970034E+03  0.7934834E+02 -0.3837805E-04 -0.9033002E-04  0.2199063E+04  0.3041097E+03
  0.4700000E+01  0.5970034E+03  0.5017574E+02 -0.3837805E-04 -0.8273810E-04  0.2199063E+04  0.1919025E+03
  0.4800000E+01  0.5970034E+03  0.1760794E+02 -0.3837805E-04 -0.6865743E-04  0.2199063E+04  0.6673473E+02
  0.4900000E+01  0.5970034E+03 -0.1511249E+02 -0.3837805E-04 -0.4891885E-04  0.2199063E+04 -0.5893878E+02
  0.5000000E+01  0.5970034E+03 -0.4486419E+02 -0.3837805E-04 -0.2482375E-04  0.2199063E+04 -0.1731352E+03
  0.5100000E+01  0.5970034E+03 -0.6893570E+02 -0.3837805E-04  0.1936187E-05  0.2199063E+04 -0.2654519E+03
  0.5200000E+01  0.5970034E+03 -0.8526527E+02 -0.3837805E-04  0.2939466E-04  0.2199063E+04 -0.3279858E+03
  0.5300000E+01  0.5970034E+03 -0.9261096E+02 -0.3837805E-04  0.5545494E-04  0.2199063E+04 -0.3559858E+03
  0.5400000E+01  0.5970034E+03 -0.9063791E+02 -0.3837805E-04  0.7805111E-04  0.2199063E+04 -0.3481857E+03
  0.5500000E+01  0.5970034E+03 -0.7991585E+02 -0.3837805E-04  0.9531299E-04  0.2199063E+04 -0.3067932E+03
  0.5600000E+01  0.5970034E+03 -0.6183189E+02 -0.3837805E-04  0.1057218E-03  0.2199063E+04 -0.2371533E+03
  0.5700000E+01  0.5970034E+03 -0.3842778E+02 -0.3837805E-04  0.1082430E-03  0.2199063E+04 -0.1471217E+03
  0.5800000E+01  0.5970034E+03 -0.1218155E+02 -0.3837805E-04  0.1024236E-03  0.2199063E+04 -0.4622591E+02
  0.5900000E+01  0.5970034E+03  0.1424607E+02 -0.3837805E-04  0.8844578E-04  0.2199063E+04  0.5531060E+02
  0.6000000E+01  0.5970034E+03  0.3827423E+02 -0.3837805E-04  0.6712963E-04  0.2199063E+04  0.1475756E+03
  0.6100000E+01  0.5970034E+03  0.5764703E+02 -0.3837805E-04  0.3988404E-04  0.2199063E+04  0.2219103E+03
  0.6200000E+01  0.5970034E+03  0.7064051E+02 -0.3837805E-04  0.8607557E-05  0.2199063E+04  0.2717025E+03
  0.6300000E+01  0.5970034E+03  0.7621067E+02 -0.3837805E-04 -0.2445198E-04  0.2199063E+04  0.2929548E+03
  0.6400000E+01  0.5970034E+03  0.7407252E+02 -0.3837805E-04 -0.5687184E-04  0.2199063E+04  0.2845873E+03
  0.6500000E+01  0.5970034E+03  0.6470176E+02 -0.3837805E-04 -0.8624462E-04  0.2199063E+04  0.2484416E+03
  0.6600000E+01  0.5970034E+03  0.4926418E+02 -0.3837805E-04 -0.1103724E-03  0.2199063E+04  0.1890092E+03
  0.6700000E+01  0.5970034E+03  0.2947974E+02 -0.3837805E-04 -0.1274466E-03  0.2199063E+04  0.1129080E+03
  0.6800000E+01  0.5970034E+03  0.7437934E+01 -0.3837805E-04 -0.1361981E-03  0.2199063E+04  0.2817223E+02
  0.6900000E+01  0.5970034E+03 -0.1461814E+02 -0.3837805E-04 -0.1360060E-03  0.2199063E+04 -0.5657755E+02
  0.7000000E+01  0.5970034E+03 -0.3451547E+02 -0.3837805E-04 -0.1269532E-03  0.2199063E+04 -0.1329940E+03
  0.7100000E+01  0.5970034E+03 -0.5036059E+02 -0.3837805E-04 -0.1098247E-03  0.2199063E+04 -0.1938072E+03
  0.7200000E+01  0.5970034E+03 -0.6071718E+02 -0.3837805E-04 -0.8604677E-04  0.2199063E+04 -0.2335066E+03
  0.7300000E+01  0.5970034E+03 -0.6473209E+02 -0.3837805E-04 -0.5757316E-04  0.2199063E+04 -0.2488242E+03
  0.7400000E+01  0.5970034E+03 -0.6220188E+02 -0.3837805E-04 -0.2672463E-04  0.2199063E+04 -0.2389895E+03
  0.7500000E+01  0.5970034E+03 -0.5357409E+02 -0.3837805E-04  0.4002756E-05  0.2199063E+04 -0.2057327E+03
  0.7600000E+01  0.5970034E+03 -0.3988350E+02 -0.3837805E-04  0.3214560E-04  0.2199063E+04 -0.1530394E+03
  0.7700000E+01  0.5970034E+03 -0.2263397E+02 -0.3837805E-04  0.5547968E-04  0.2199063E+04 -0.8669557E+02
  0.7800000E+01  0.5970034E+03 -0.3637330E+01 -0.3837805E-04  0.7220726E-04  0.2199063E+04 -0.1366784E+02
  0.7900000E+01  0.5970034E+03  0.1517412E+02 -0.3837805E-04  0.8111006E-04  0.2199063E+04  0.5861726E+02
  0.8000000E+01  0.5970034E+03  0.3194065E+02 -0.3837805E-04  0.8165230E-04  0.2199063E+04  0.1230149E+03
  0.8100000E+01  0.5970034E+03  0.4505720E+02 -0.3837805E-04  0.7402677E-04  0.2199063E+04  0.1733618E+03
  0.8200000E+01  0.5970034E+03  0.5332367E+02 -0.3837805E-04  0.5913855E-04  0.2199063E+04  0.2050528E+03
  0.8300000E+01  0.5970034E+03  0.5605323E+02 -0.3837805E-04  0.3852697E-04  0.2199063E+04  0.2154566E+03
  0.8400001E+01  0.5970034E+03  0.5312571E+02 -0.3837805E-04  0.1423417E-04  0.2199063E+04  0.2041200E+03
  0.8500000E+01  0.5970034E+03  0.4498494E+02 -0.3837805E-04 -0.1137211E-04  0.2199063E+04  0.1727568E+03
  0.8600000E+01  0.5970034E+03  0.3257917E+02 -0.3837805E-04 -0.3580395E-04  0.2199063E+04  0.1250184E+03
  0.8700000E+01  0.5970034E+03  0.1725509E+02 -0.3837805E-04 -0.5666854E-04  0.2199063E+04  0.6608546E+02
  0.8800000E+01  0.5970034E+03  0.6130802E+00 -0.3837805E-04 -0.7187881E-04  0.2199063E+04  0.2111426E+01
  0.8900001E+01  0.5970034E+03 -0.1565638E+02 -0.3837805E-04 -0.7983604E-04  0.2199063E+04 -0.6040639E+02
  0.9000000E+01  0.5970034E+03 -0.2994398E+02 -0.3837805E-04 -0.7957331E-04  0.2199063E+04 -0.1152850E+03
  0.9100000E+01  0.5970034E+03 -0.4087812E+02 -0.3837805E-04 -0.7084296E-04  0.2199063E+04 -0.1572572E+03
  0.9200000E+01  0.5970034E+03 -0.4745466E+02 -0.3837805E-04 -0.5414447E-04  0.2199063E+04 -0.1824693E+03
  0.9300000E+01  0.5970034E+03 -0.4912851E+02 -0.3837805E-04 -0.3068541E-04  0.2199063E+04 -0.1888331E+03
  0.9400001E+01  0.5970034E+03 -0.4585495E+02 -0.3837805E-04 -0.2284253E-05  0.2199063E+04 -0.1761837E+03
  0.9500000E+01  0.5970034E+03 -0.3808315E+02 -0.3837805E-04  0.2878269E-04  0.2199063E+04 -0.1462539E+03
  0.9600000E+01  0.5970034E+03 -0.2669831E+02 -0.3837805E-04  0.5997323E-04  0.2199063E+04 -0.1024514E+03
  0.9700000E+01  0.5970034E+03 -0.1292427E+02 -0.3837805E-04  0.8869368E-04  0.2199063E+04 -0.4948389E+02
  0.9800000E+01  0.5970034E+03  0.1807476E+01 -0.3837805E-04  0.1125210E-03  0.2199063E+04  0.7144846E+01
  0.9900001E+01  0.5970034E+03  0.1600366E+02 -0.3837805E-04  0.1294083E-03  0.2199063E+04  0.6169543E+02
  0.1000000E+02  0.5970034E+03  0.2826025E+02 -0.3837805E-04  0.1378610E-03  0.2199063E+04  0.1087735E+03
  0.1010000E+02  0.5970034E+03  0.3739999E+02 -0.3837805E-04  0.1370651E-03  0.2199063E+04  0.1438577E+03
  0.1020000E+02  0.5970034E+03  0.4258367E+02 -0.3837805E-04  0.1269583E-03  0.2199063E+04  0.1637277E+03
  0.1030000E+02  0.5970034E+03  0.4338640E+02 -0.3837805E-04  0.1082370E-03  0.2199063E+04  0.1667557E+03
  0.1040000E+02  0.5970034E+03  0.3982987E+02 -0.3837805E-04  0.8229996E-04  0.2199063E+04  0.1530311E+03
  0.1050000E+02  0.5970034E+03  0.3237067E+02 -0.3837805E-04  0.5113295E-04  0.2199063E+04  0.1243138E+03
  0.1060000E+02  0.5970034E+03  0.2184375E+02 -0.3837805E-04  0.1714142E-04  0.2199063E+04  0.8381754E+02
  0.1070000E+02  0.5970034E+03  0.9371775E+01 -0.3837805E-04 -0.1704649E-04  0.2199063E+04  0.3586048E+02
  0.1080000E+02  0.5970034E+03 -0.3754404E+01 -0.3837805E-04 -0.4880070E-04  0.2199063E+04 -0.1459457E+02
  0.1090000E+02  0.5970034E+03 -0.1620714E+02 -0.3837805E-04 -0.7570298E-04  0.2199063E+04 -0.6244482E+02
  0.1100000E+02  0.5970034E+03 -0.2675612E+02 -0.3837805E-04 -0.9574658E-04  0.2199063E+04 -0.1029633E+03
  0.1110000E+02  0.5970034E+03 -0.3438892E+02 -0.3837805E-04 -0.1074975E-03  0.2199063E+04 -0.1322619E+03
  0.1120000E+02  0.5970034E+03 -0.3840638E+02 -0.3837805E-04 -0.1102059E-03  0.2199063E+04 -0.1476574E+03
  0.1130000E+02  0.5970034E+03 -0.3848709E+02 -0.3837805E-04 -0.1038615E-03  0.2199063E+04 -0.1479193E+03
  0.1140000E+02  0.5970034E+03 -0.3470932E+02 -0.3837805E-04 -0.8918408E-04  0.2199063E+04 -0.1333531E+03
  0.1150000E+02  0.5970034E+03 -0.2753651E+02 -0.3837805E-04 -0.6755569E-04  0.2199063E+04 -0.1057446E+03
  0.1160000E+02  0.5970034E+03 -0.1776034E+02 -0.3837805E-04 -0.4089641E-04  0.2199063E+04 -0.6814043E+02
  0.1170000E+02  0.5970034E+03 -0.6416987E+01 -0.3837805E-04 -0.1149913E-04  0.2199063E+04 -0.2452563E+02
  0.1180000E+02  0.5970034E+03  0.5323907E+01 -0.3837805E-04  0.1816638E-04  0.2199063E+04  0.2060303E+02
  0.1190000E+02  0.5970034E+03  0.1627743E+02 -0.3837805E-04  0.4565713E-04  0.2199063E+04  0.6269150E+02
  0.1200000E+02  0.5970034E+03  0.2536286E+02 -0.3837805E-04  0.6875805E-04  0.2199063E+04  0.9758759E+02
  0.1210000E+02  0.5970034E+03  0.3171011E+02 -0.3837805E-04  0.8565794E-04  0.2199063E+04  0.1219498E+03
  0.1220000E+02  0.5970034E+03  0.3474086E+02 -0.3837805E-04  0.9508714E-04  0.2199063E+04  0.1335589E+03
  0.1230000E+02  0.5970034E+03  0.3422201E+02 -0.3837805E-04  0.9640920E-04  0.2199063E+04  0.1315229E+03
  0.1240000E+02  0.5970034E+03  0.3028025E+02 -0.3837805E-04  0.8965324E-04  0.2199063E+04  0.1163332E+03
  0.1250000E+02  0.5970034E+03  0.2338336E+02 -0.3837805E-04  0.7549430E-04  0.2199063E+04  0.8979129E+02
  0.1260000E+02  0.5970034E+03  0.1428432E+02 -0.3837805E-04  0.5517527E-04  0.2199063E+04  0.5479450E+02
  0.1270000E+02  0.5970034E+03  0.3942319E+01 -0.3837805E-04  0.3038713E-04  0.2199063E+04  0.1503155E+02
  0.1280000E+02  0.5970034E+03 -0.6580006E+01 -0.3837805E-04  0.3111744E-05  0.2199063E+04 -0.2541217E+02
  0.1290000E+02  0.5970034E+03 -0.1622290E+02 -0.3837805E-04 -0.2455124E-04  0.2199063E+04 -0.6246379E+02
  0.1300000E+02  0.5970034E+03 -0.2403729E+02 -0.3837805E-04 -0.5056446E-04  0.2199063E+04 -0.9247694E+02
  0.1310000E+02  0.5970034E+03 -0.2927667E+02 -0.3837805E-04 -0.7312058E-04  0.2199063E+04 -0.1125849E+03
  0.1320000E+02  0.5970034E+03 -0.3146812E+02 -0.3837805E-04 -0.9078111E-04  0.2199063E+04 -0.1209730E+03
  0.1330000E+02  0.5970034E+03 -0.3045446E+02 -0.3837805E-04 -0.1025818E-03  0.2199063E+04 -0.1170407E+03
  0.1340000E+02  0.5970034E+03 -0.2640273E+02 -0.3837805E-04 -0.1080887E-03  0.2199063E+04 -0.1014337E+03
  0.1350000E+02  0.5970034E+03 -0.1978174E+02 -0.3837805E-04 -0.1074076E-03  0.2199063E+04 -0.7595719E+02
  0.1360000E+02  0.5970034E+03 -0.1130856E+02 -0.3837805E-04 -0.1011433E-03  0.2199063E+04 -0.4336980E+02
  0.1370000E+02  0.5970034E+03 -0.1871588E+01 -0.3837805E-04 -0.9031844E-04  0.2199063E+04 -0.7088000E+01
  0.1380000E+02  0.5970034E+03  0.7562167E+01 -0.3837805E-04 -0.7625421E-04  0.2199063E+04  0.2917075E+02
  0.1390000E+02  0.5970034E+03  0.1604491E+02 -0.3837805E-04 -0.6043373E-04  0.2199063E+04  0.6176386E+02
  0.1400000E+02  0.5970034E+03  0.2274420E+02 -0.3837805E-04 -0.4435284E-04  0.2199063E+04  0.8749316E+02
  0.1410000E+02  0.5970034E+03  0.2702309E+02 -0.3837805E-04 -0.2937718E-04  0.2199063E+04  0.1039127E+03
  0.1420000E+02  0.5970034E+03  0.2849999E+02 -0.3837805E-04 -0.1661939E-04  0.2199063E+04  0.1095586E+03
  0.1430000E+02  0.5970034E+03  0.2708300E+02 -0.3837805E-04 -0.6842178E-05  0.2199063E+04  0.1040807E+03
  0.1440000E+02  0.5970034E+03  0.2297236E+02 -0.3837805E-04 -0.4030875E-06  0.2199063E+04  0.8825201E+02
  0.1450000E+02  0.5970034E+03  0.1663518E+02 -0.3837805E-04  0.2763097E-05  0.2199063E+04  0.6387054E+02
  0.1460000E+02  0.5970034E+03  0.8752501E+01 -0.3837805E-04  0.3116423E-05  0.2199063E+04  0.3355625E+02
  0.1470000E+02  0.5970034E+03  0.1476414E+00 -0.3837805E-04  0.1447861E-05  0.2199063E+04  0.4750363E+00
  0.1480000E+02  0.5970034E+03 -0.8300459E+01 -0.3837805E-04 -0.1218023E-05  0.2199063E+04 -0.3199419E+02
  0.1490000E+02  0.5970034E+03 -0.1574498E+02 -0.3837805E-04 -0.3740199E-05  0.2199063E+04 -0.6059711E+02
  0.1500000E+02  0.5970034E+03 -0.2145824E+02 -0.3837805E-04 -0.4989625E-05  0.2199063E+04 -0.8253803E+02
  0.1510000E+02  0.5970034E+03 -0.2489987E+02 -0.3837805E-04 -0.3972625E-05  0.2199063E+04 -0.9574208E+02
  0.1520000E+02  0.5970034E+03 -0.2576891E+02 -0.3837805E-04  0.5740113E-07  0.2199063E+04 -0.9905505E+02
  0.1530000E+02  0.5970034E+03 -0.2402925E+02 -0.3837805E-04  0.7516603E-05  0.2199063E+04 -0.9234082E+02
  0.1540000E+02  0.5970034E+03 -0.1990743E+02 -0.3837805E-04  0.1843812E-04  0.2199063E+04 -0.7647308E+02
  0.1550000E+02  0.5970034E+03 -0.1386554E+02 -0.3837805E-04  0.3245748E-04  0.2199063E+04 -0.5323022E+02
  0.1560000E+02  0.5970034E+03 -0.6548953E+01 -0.3837805E-04  0.4883845E-04  0.2199063E+04 -0.2509472E+02
  0.1570000E+02  0.5970034E+03  0.1280588E+01 -0.3837805E-04  0.6653179E-04  0.2199063E+04  0.5004269E+01
  0.1580000E+02  0.5970034E+03  0.8825728E+01 -0.3837805E-04  0.8426671E-04  0.2199063E+04  0.3400184E+02
  0.1590000E+02  0.5970034E+03  0.1533294E+02 -0.3837805E-04  0.1006629E-03  0.2199063E+04  0.5900212E+02
Zone t="DoF    2",I=   160,F=POINT
  0.0000000E+00  0.4357239E-04  0.1227323E-04  0.2449755E+04  0.4642742E+04  0.6724078E-04  0.1543398E-04
  0.1000000E+00  0.4357239E-04  0.1148768E-04  0.2449755E+04  0.4512777E+04  0.6724078E-04  0.1292301E-04
  0.2000000E+00  0.4357239E-04  0.9221264E-05  0.2449755E+04  0.4131782E+04  0.6724078E-04  0.5741600E-05
  0.3000000E+00  0.4357239E-04  0.5734947E-05  0.2449755E+04  0.3525769E+04  0.6724078E-04 -0.5096091E-05
  0.4000000E+00  0.4357239E-04  0.1432553E-05  0.2449755E+04  0.2735896E+04  0.6724078E-04 -0.1803046E-04
  0.5000000E+00  0.4357239E-04 -0.3182625E-05  0.2449755E+04  0.1815347E+04  0.6724078E-04 -0.3113755E-04
  0.6000000E+00  0.4357239E-04 -0.7562078E-05  0.2449755E+04  0.8253371E+03  0.6724078E-04 -0.4235509E-04
  0.7000000E+00  0.4357239E-04 -0.1117163E-04  0.2449755E+04 -0.1694577E+03  0.6724078E-04 -0.4972869E-04
  0.8000000E+00  0.4357239E-04 -0.1355007E-04  0.2449755E+04 -0.1105669E+04  0.6724078E-04 -0.5165184E-04
  0.9000000E+00  0.4357239E-04 -0.1436075E-04  0.2449755E+04 -0.1925820E+04  0.6724078E-04 -0.4707318E-04
  0.1000000E+01  0.4357239E-04 -0.1343061E-04  0.2449755E+04 -0.2582387E+04  0.6724078E-04 -0.3564800E-04
  0.1100000E+01  0.4357239E-04 -0.1077258E-04  0.2449755E+04 -0.3041001E+04  0.6724078E-04 -0.1781604E-04
  0.1200000E+01  0.4357239E-04 -0.6588718E-05  0.2449755E+04 -0.3282569E+04  0.6724078E-04  0.5204082E-05
  0.1300000E+01  0.4357239E-04 -0.1253526E-05  0.2449755E+04 -0.3304172E+04  0.6724078E-04  0.3150603E-04
  0.1400000E+01  0.4357239E-04  0.4720925E-05  0.2449755E+04 -0.3118675E+04  0.6724078E-04  0.5866446E-04
  0.1500000E+01  0.4357239E-04  0.1073501E-04  0.2449755E+04 -0.2753139E+04  0.6724078E-04  0.8396641E-04
  0.1600000E+01  0.4357239E-04  0.1616144E-04  0.2449755E+04 -0.2246176E+04  0.6724078E-04  0.1046822E-03
  0.1700000E+01  0.4357239E-04  0.2040930E-04  0.2449755E+04 -0.1644493E+04  0.6724078E-04  0.1183494E-03
  0.1800000E+01  0.4357239E-04  0.2298568E-04  0.2449755E+04 -0.9989358E+03  0.6724078E-04  0.1230409E-03
  0.1900000E+01  0.4357239E-04  0.2354850E-04  0.2449755E+04 -0.3603543E+03  0.6724078E-04  0.1175890E-03
  0.2000000E+01  0.4357239E-04  0.2194515E-04  0.2449755E+04  0.2243558E+03  0.6724078E-04  0.1017408E-03
  0.2100000E+01  0.4357239E-04  0.1823276E-04  0.2449755E+04  0.7157208E+03  0.6724078E-04  0.7622819E-04
  0.2200000E+01  0.4357239E-04  0.1267784E-04  0.2449755E+04  0.1084404E+04  0.6724078E-04  0.4274237E-04
  0.2300000E+01  0.4357239E-04  0.5734792E-05  0.2449755E+04  0.1312974E+04  0.6724078E-04  0.3811517E-05
  0.2400000E+01  0.4357239E-04 -0.1994597E-05  0.2449755E+04  0.1396606E+04  0.6724078E-04 -0.3740720E-04
  0.2500000E+01  0.4357239E-04 -0.9817038E-05  0.2449755E+04  0.1342711E+04  0.6724078E-04 -0.7740418E-04
  0.2600000E+01  0.4357239E-04 -0.1701387E-04  0.2449755E+04  0.1169567E+04  0.6724078E-04 -0.1126381E-03
  0.2700000E+01  0.4357239E-04 -0.2291057E-04  0.2449755E+04  0.9041091E+03  0.6724078E-04 -0.1398685E-03
  0.2800000E+01  0.4357239E-04 -0.2694338E-04  0.2449755E+04  0.5790995E+03  0.6724078E-04 -0.1564711E-03
  0.2900000E+01  0.4357239E-04 -0.2871580E-04  0.2449755E+04  0.2299521E+03  0.6724078E-04 -0.1607024E-03
  0.3000000E+01  0.4357239E-04 -0.2803974E-04  0.2449755E+04 -0.1084970E+03  0.6724078E-04 -0.1518877E-03
  0.3100000E+01  0.4357239E-04 -0.2495684E-04  0.2449755E+04 -0.4050054E+03  0.6724078E-04 -0.1305144E-03
  0.3200000E+01  0.4357239E-04 -0.1973766E-04  0.2449755E+04 -0.6344527E+03  0.6724078E-04 -0.9821650E-04
  0.3300000E+01  0.4357239E-04 -0.1285848E-04  0.2449755E+04 -0.7797041E+03  0.6724078E-04 -0.5765198E-04
  0.3400000E+01  0.4357239E-04 -0.4957781E-05  0.2449755E+04 -0.8326555E+03  0.6724078E-04 -0.1228112E-04
  0.3500000E+01  0.4357239E-04  0.3223446E-05  0.2449755E+04 -0.7944207E+03  0.6724078E-04  0.3393419E-04
  0.3600000E+01  0.4357239E-04  0.1091232E-04  0.2449755E+04 -0.6746776E+03  0.6724078E-04  0.7688507E-04
  0.3700000E+01  0.4357239E-04  0.1737822E-04  0.2449755E+04 -0.4902710E+03  0.6724078E-04  0.1126889E-03
  0.3800000E+01  0.4357239E-04  0.2200389E-04  0.2449755E+04 -0.2632350E+03  0.6724078E-04  0.1380501E-03
  0.3900000E+01  0.4357239E-04  0.2434616E-04  0.2449755E+04 -0.1843674E+02  0.6724078E-04  0.1505711E-03
  0.4000000E+01  0.4357239E-04  0.2418023E-04  0.2449755E+04  0.2189132E+03  0.6724078E-04  0.1489865E-03
  0.4100000E+01  0.4357239E-04  0.2152336E-04  0.2449755E+04  0.4256721E+03  0.6724078E-04  0.1332949E-03
  0.4200000E+01  0.4357239E-04  0.1663507E-04  0.2449755E+04  0.5828539E+03  0.6724078E-04  0.1047773E-03
  0.4300000E+01  0.4357239E-04  0.9994032E-05  0.2449755E+04  0.6772314E+03  0.6724078E-04  0.6589755E-04
  0.4400000E+01  0.4357239E-04  0.2253166E-05  0.2449755E+04  0.7023251E+03  0.6724078E-04  0.2009193E-04
  0.4500000E+01  0.4357239E-04 -0.5822309E-05  0.2449755E+04  0.6587054E+03  0.6724078E-04 -0.2853160E-04
  0.4600000E+01  0.4357239E-04 -0.1342849E-04  0.2449755E+04  0.5536088E+03  0.6724078E-04 -0.7555974E-04
  0.4700000E+01  0.4357239E-04 -0.1980075E-04  0.2449755E+04  0.3999433E+03  0.6724078E-04 -0.1166719E-03
  0.4800000E+01  0.4357239E-04 -0.2428842E-04  0.2449755E+04  0.2147949E+03  0.6724078E-04 -0.1480319E-03
  0.4900000E+01  0.4357239E-04 -0.2641942E-04  0.2449755E+04  0.1759385E+02  0.6724078E-04 -0.1666418E-03
  0.5000000E+01  0.4357239E-04 -0.2594778E-04  0.2449755E+04 -0.1718665E+03  0.6724078E-04 -0.1706186E-03
  0.5100000E+01  0.4357239E-04 -0.2287978E-04  0.2449755E+04 -0.3353611E+03  0.6724078E-04 -0.1593741E-03
  0.5200000E+01  0.4357239E-04 -0.1747580E-04  0.2449755E+04 -0.4579402E+03  0.6724078E-04 -0.1336763E-03
  0.5300000E+01  0.4357239E-04 -0.1022768E-04  0.2449755E+04 -0.5292489E+03  0.6724078E-04 -0.9558965E-04
  0.5400000E+01  0.4357239E-04 -0.1813045E-05  0.2449755E+04 -0.5443616E+03  0.6724078E-04 -0.4829583E-04
  0.5500000E+01  0.4357239E-04  0.6968435E-05  0.2449755E+04 -0.5040444E+03  0.6724078E-04  0.4185744E-05
  0.5600000E+01  0.4357239E-04  0.1527150E-04  0.2449755E+04 -0.4144713E+03  0.6724078E-04  0.5735500E-04
  0.5700000E+01  0.4357239E-04  0.2228687E-04  0.2449755E+04 -0.2864152E+03  0.6724078E-04  0.1066319E-03
  0.5800000E+01  0.4357239E-04  0.2731996E-04  0.2449755E+04 -0.1340305E+03  0.6724078E-04  0.1477640E-03
  0.5900000E+01  0.4357239E-04  0.2985983E-04  0.2449755E+04  0.2665552E+02  0.6724078E-04  0.1772063E-03
  0.6000000E+01  0.4357239E-04  0.2963058E-04  0.2449755E+04  0.1793820E+03  0.6724078E-04  0.1924355E-03
  0.6100000E+01  0.4357239E-04  0.2662100E-04  0.2449755E+04  0.3092509E+03  0.6724078E-04  0.1921717E-03
  0.6200000E+01  0.4357239E-04  0.2108877E-04  0.2449755E+04  0.4041451E+03  0.6724078E-04  0.1764883E-03
  0.6300000E+01  0.4357239E-04  0.1353926E-04  0.2449755E+04  0.4558177E+03  0.6724078E-04  0.1467999E-03
  0.6400000E+01  0.4357239E-04  0.4679719E-05  0.2449755E+04  0.4605777E+03  0.6724078E-04  0.1057280E-03
  0.6500000E+01  0.4357239E-04 -0.4645886E-05  0.2449755E+04  0.4194961E+03  0.6724078E-04  0.5686100E-04
  0.6600000E+01  0.4357239E-04 -0.1353615E-04  0.2449755E+04  0.3381440E+03  0.6724078E-04  0.4428003E-05
  0.6700000E+01  0.4357239E-04 -0.2111790E-04  0.2449755E+04  0.2258980E+03  0.6724078E-04 -0.4708314E-04
  0.6800000E+01  0.4357239E-04 -0.2662990E-04  0.2449755E+04  0.9489710E+02  0.6724078E-04 -0.9332588E-04
  0.6900000E+01  0.4357239E-04 -0.2949731E-04  0.2449755E+04 -0.4124849E+02  0.6724078E-04 -0.1304808E-03
  0.7000000E+01  0.4357239E-04 -0.2938894E-04  0.2449755E+04 -0.1688449E+03  0.6724078E-04 -0.1555881E-03
  0.7100000E+01  0.4357239E-04 -0.2625229E-04  0.2449755E+04 -0.2754657E+03  0.6724078E-04 -0.1667993E-03
  0.7200000E+01  0.4357239E-04 -0.2032248E-04  0.2449755E+04 -0.3511486E+03  0.6724078E-04 -0.1635251E-03
  0.7300000E+01  0.4357239E-04 -0.1210441E-04  0.2449755E+04 -0.3892979E+03  0.6724078E-04 -0.1464682E-03
  0.7400000E+01  0.4357239E-04 -0.2329051E-05  0.2449755E+04 -0.3872434E+03  0.6724078E-04 -0.1175375E-03
  0.7500000E+01  0.4357239E-04  0.8111686E-05  0.2449755E+04 -0.3463868E+03  0.6724078E-04 -0.7965510E-04
  0.7600000E+01  0.4357239E-04  0.1824609E-04  0.2449755E+04 -0.2719422E+03  0.6724078E-04 -0.3647304E-04
  0.7700000E+01  0.4357239E-04  0.2711193E-04  0.2449755E+04 -0.1723104E+03  0.6724078E-04  0.7971275E-05
  0.7800000E+01  0.4357239E-04  0.3384567E-04  0.2449755E+04 -0.5815770E+02  0.6724078E-04  0.4962846E-04
  0.7900000E+01  0.4357239E-04  0.3776382E-04  0.2449755E+04  0.5871172E+02  0.6724078E-04  0.8480728E-04
  0.8000000E+01  0.4357239E-04  0.3842814E-04  0.2449755E+04  0.1665502E+03  0.6724078E-04  0.1105042E-03
  0.8100000E+01  0.4357239E-04  0.3568866E-04  0.2449755E+04  0.2548431E+03  0.6724078E-04  0.1246633E-03
  0.8200000E+01  0.4357239E-04  0.2970112E-04  0.2449755E+04  0.3153053E+03  0.6724078E-04  0.1263457E-03
  0.8300000E+01  0.4357239E-04  0.2091589E-04  0.2449755E+04  0.3426544E+03  0.6724078E-04  0.1157923E-03
  0.8400001E+01  0.4357239E-04  0.1004063E-04  0.2449755E+04  0.3350475E+03  0.6724078E-04  0.9437525E-04
  0.8500000E+01  0.4357239E-04 -0.2021120E-05  0.2449755E+04  0.2941776E+03  0.6724078E-04  0.6444800E-04
  0.8600000E+01  0.4357239E-04 -0.1424984E-04  0.2449755E+04  0.2250061E+03  0.6724078E-04  0.2910308E-04
  0.8700000E+01  0.4357239E-04 -0.2559954E-04  0.2449755E+04  0.1351886E+03  0.6724078E-04 -0.8128838E-05
  0.8800000E+01  0.4357239E-04 -0.3509162E-04  0.2449755E+04  0.3423685E+02  0.6724078E-04 -0.4362089E-04
  0.8900001E+01  0.4357239E-04 -0.4190138E-04  0.2449755E+04 -0.6746625E+02  0.6724078E-04 -0.7398910E-04
  0.9000000E+01  0.4357239E-04 -0.4543216E-04  0.2449755E+04 -0.1597372E+03  0.6724078E-04 -0.9640604E-04
  0.9100000E+01  0.4357239E-04 -0.4536827E-04  0.2449755E+04 -0.2335891E+03  0.6724078E-04 -0.1088552E-03
  0.9200000E+01  0.4357239E-04 -0.4170316E-04  0.2449755E+04 -0.2820999E+03  0.6724078E-04 -0.1103034E-03
  0.9300000E+01  0.4357239E-04 -0.3473986E-04  0.2449755E+04 -0.3010558E+03  0.6724078E-04 -0.1007799E-03
  0.9400001E+01  0.4357239E-04 -0.2506405E-04  0.2449755E+04 -0.2892958E+03  0.6724078E-04 -0.8135224E-04
  0.9500000E+01  0.4357239E-04 -0.1349207E-04  0.2449755E+04 -0.2487602E+03  0.6724078E-04 -0.5400707E-04
  0.9600000E+01  0.4357239E-04 -0.9981472E-06  0.2449755E+04 -0.1842147E+03  0.6724078E-04 -0.2144384E-04
  0.9700000E+01  0.4357239E-04  0.1137057E-04  0.2449755E+04 -0.1027106E+03  0.6724078E-04  0.1318999E-04
  0.9800000E+01  0.4357239E-04  0.2258664E-04  0.2449755E+04 -0.1282180E+02  0.6724078E-04  0.4660670E-04
  0.9900001E+01  0.4357239E-04  0.3173062E-04  0.2449755E+04  0.7624313E+02  0.6724078E-04  0.7568687E-04
  0.1000000E+02  0.4357239E-04  0.3807039E-04  0.2449755E+04  0.1555770E+03  0.6724078E-04  0.9777151E-04
  0.1010000E+02  0.4357239E-04  0.4112249E-04  0.2449755E+04  0.2174618E+03  0.6724078E-04  0.1109020E-03
  0.1020000E+02  0.4357239E-04  0.4069080E-04  0.2449755E+04  0.2561021E+03  0.6724078E-04  0.1139904E-03
  0.1030000E+02  0.4357239E-04  0.3687948E-04  0.2449755E+04  0.2681684E+03  0.6724078E-04  0.1069031E-03
  0.1040000E+02  0.4357239E-04  0.3007944E-04  0.2449755E+04  0.2530648E+03  0.6724078E-04  0.9045504E-04
  0.1050000E+02  0.4357239E-04  0.2092956E-04  0.2449755E+04  0.2129351E+03  0.6724078E-04  0.6631231E-04
  0.1060000E+02  0.4357239E-04  0.1025652E-04  0.2449755E+04  0.1523732E+03  0.6724078E-04  0.3681735E-04
  0.1070000E+02  0.4357239E-04 -0.1000079E-05  0.2449755E+04  0.7792006E+02  0.6724078E-04  0.4755661E-05
  0.1080000E+02  0.4357239E-04 -0.1187233E-04  0.2449755E+04 -0.2646009E+01  0.6724078E-04 -0.2691747E-04
  0.1090000E+02  0.4357239E-04 -0.2144803E-04  0.2449755E+04 -0.8110372E+02  0.6724078E-04 -0.5535572E-04
  0.1100000E+02  0.4357239E-04 -0.2894914E-04  0.2449755E+04 -0.1496301E+03  0.6724078E-04 -0.7808718E-04
  0.1110000E+02  0.4357239E-04 -0.3379630E-04  0.2449755E+04 -0.2015740E+03  0.6724078E-04 -0.9323714E-04
  0.1120000E+02  0.4357239E-04 -0.3565370E-04  0.2449755E+04 -0.2320895E+03  0.6724078E-04 -0.9968662E-04
  0.1130000E+02  0.4357239E-04 -0.3445238E-04  0.2449755E+04 -0.2385900E+03  0.6724078E-04 -0.9715901E-04
  0.1140000E+02  0.4357239E-04 -0.3038820E-04  0.2449755E+04 -0.2209487E+03  0.6724078E-04 -0.8622035E-04
  0.1150000E+02  0.4357239E-04 -0.2389744E-04  0.2449755E+04 -0.1814674E+03  0.6724078E-04 -0.6820284E-04
  0.1160000E+02  0.4357239E-04 -0.1561067E-04  0.2449755E+04 -0.1245807E+03  0.6724078E-04 -0.4505376E-04
  0.1170000E+02  0.4357239E-04 -0.6292044E-05  0.2449755E+04 -0.5637990E+02  0.6724078E-04 -0.1913384E-04