 VARIABLES="Time (s)"
"AddedMass    1" "IRF    1"
"AddedMass    2" "IRF    2"
"AddedMass    3" "IRF    3"
Zone t="DoF    1",I=   160,F=POINT
  0.0000000E+00  0.6433148E+05  0.1619851E+06 -0.1234304E-02 -0.1456098E-01  0.7070150E+05  0.9897992E+05
  0.1000000E+00  0.6433148E+05  0.1590656E+06 -0.1234304E-02 -0.1405894E-01  0.7070150E+05  0.9744959E+05
  0.2000000E+00  0.6433148E+05  0.1504363E+06 -0.1234304E-02 -0.1259303E-01  0.7070150E+05  0.9291462E+05
  0.3000000E+00  0.6433148E+05  0.1364783E+06 -0.1234304E-02 -0.1028060E-01  0.7070150E+05  0.8554051E+05
  0.4000000E+00  0.6433148E+05  0.1178043E+06 -0.1234304E-02 -0.7306416E-02  0.7070150E+05  0.7559546E+05
  0.5000000E+00  0.6433148E+05  0.9522618E+05 -0.1234304E-02 -0.3907519E-02  0.7070150E+05  0.6343876E+05
  0.6000000E+00  0.6433148E+05  0.6971295E+05 -0.1234304E-02 -0.3536881E-03  0.7070150E+05  0.4950571E+05
  0.7000000E+00  0.6433148E+05  0.4234053E+05 -0.1234304E-02  0.3074674E-02  0.7070150E+05  0.3428954E+05
  0.8000000E+00  0.6433148E+05  0.1423745E+05 -0.1234304E-02  0.6109516E-02  0.7070150E+05  0.1832092E+05
  0.9000000E+00  0.6433148E+05 -0.1347090E+05 -0.1234304E-02  0.8516977E-02  0.7070150E+05  0.2146612E+04
  0.1000000E+01  0.6433148E+05 -0.3971623E+05 -0.1234304E-02  0.1011637E-01  0.7070150E+05 -0.1369235E+05
  0.1100000E+01  0.6433148E+05 -0.6353634E+05 -0.1234304E-02  0.1079468E-01  0.7070150E+05 -0.2868159E+05
  0.1200000E+01  0.6433148E+05 -0.8411649E+05 -0.1234304E-02  0.1051540E-01  0.7070150E+05 -0.4235255E+05
  0.1300000E+01  0.6433148E+05 -0.1008213E+06 -0.1234304E-02  0.9321061E-02  0.7070150E+05 -0.5429916E+05
  0.1400000E+01  0.6433148E+05 -0.1132158E+06 -0.1234304E-02  0.7329156E-02  0.7070150E+05 -0.6419133E+05
  0.1500000E+01  0.6433148E+05 -0.1210745E+06 -0.1234304E-02  0.4721967E-02  0.7070150E+05 -0.7178477E+05
  0.1600000E+01  0.6433148E+05 -0.1243789E+06 -0.1234304E-02  0.1731069E-02  0.7070150E+05 -0.7692671E+05
  0.1700000E+01  0.6433148E+05 -0.1233050E+06 -0.1234304E-02 -0.1382131E-02  0.7070150E+05 -0.7955766E+05
  0.1800000E+01  0.6433148E+05 -0.1182003E+06 -0.1234304E-02 -0.4348194E-02  0.7070150E+05 -0.7970922E+05
  0.1900000E+01  0.6433148E+05 -0.1095545E+06 -0.1234304E-02 -0.6911960E-02  0.7070150E+05 -0.7749824E+05
  0.2000000E+01  0.6433148E+05 -0.9796432E+05 -0.1234304E-02 -0.8853521E-02  0.7070150E+05 -0.7311765E+05
  0.2100000E+01  0.6433148E+05 -0.8409598E+05 -0.1234304E-02 -0.1000612E-01  0.7070150E+05 -0.6682494E+05
  0.2200000E+01  0.6433148E+05 -0.6864759E+05 -0.1234304E-02 -0.1026954E-01  0.7070150E+05 -0.5892850E+05
  0.2300000E+01  0.6433148E+05 -0.5231285E+05 -0.1234304E-02 -0.9617895E-02  0.7070150E+05 -0.4977282E+05
  0.2400000E+01  0.6433148E+05 -0.3574950E+05 -0.1234304E-02 -0.8101221E-02  0.7070150E+05 -0.3972322E+05
  0.2500000E+01  0.6433148E+05 -0.1955266E+05 -0.1234304E-02 -0.5840797E-02  0.7070150E+05 -0.2915101E+05
  0.2600000E+01  0.6433148E+05 -0.4234780E+04 -0.1234304E-02 -0.3018623E-02  0.7070150E+05 -0.1841911E+05
  0.2700000E+01  0.6433148E+05  0.9787325E+04 -0.1234304E-02  0.1379745E-03  0.7070150E+05 -0.7869624E+04
  0.2800000E+01  0.6433148E+05  0.2219882E+05 -0.1234304E-02  0.3375357E-02  0.7070150E+05  0.2187156E+04
  0.2900000E+01  0.6433148E+05  0.3278648E+05 -0.1234304E-02  0.6434571E-02  0.7070150E+05  0.1148130E+05
  0.3000000E+01  0.6433148E+05  0.4143283E+05 -0.1234304E-02  0.9072503E-02  0.7070150E+05  0.1978940E+05
  0.3100000E+01  0.6433148E+05  0.4810618E+05 -0.1234304E-02  0.1108164E-01  0.7070150E+05  0.2693866E+05
  0.3200000E+01  0.6433148E+05  0.5284724E+05 -0.1234304E-02  0.1230655E-01  0.7070150E+05  0.3280817E+05
  0.3300000E+01  0.6433148E+05  0.5575443E+05 -0.1234304E-02  0.1265608E-01  0.7070150E+05  0.3732843E+05
  0.3400000E+01  0.6433148E+05  0.5696859E+05 -0.1234304E-02  0.1210996E-01  0.7070150E+05  0.4047878E+05
  0.3500000E+01  0.6433148E+05  0.5665862E+05 -0.1234304E-02  0.1071973E-01  0.7070150E+05  0.4228325E+05
  0.3600000E+01  0.6433148E+05  0.5500888E+05 -0.1234304E-02  0.8603617E-02  0.7070150E+05  0.4280523E+05
  0.3700000E+01  0.6433148E+05  0.5220874E+05 -0.1234304E-02  0.5936159E-02  0.7070150E+05  0.4214132E+05
  0.3800000E+01  0.6433148E+05  0.4844505E+05 -0.1234304E-02  0.2933341E-02  0.7070150E+05  0.4041462E+05
  0.3900000E+01  0.6433148E+05  0.4389696E+05 -0.1234304E-02 -0.1654698E-03  0.7070150E+05  0.3776788E+05
  0.4000000E+01  0.6433148E+05  0.3873346E+05 -0.1234304E-02 -0.3117127E-02  0.7070150E+05  0.3435685E+05
  0.4100000E+01  0.6433148E+05  0.3311266E+05 -0.1234304E-02 -0.5694434E-02  0.7070150E+05  0.3034396E+05
  0.4200000E+01  0.6433148E+05  0.2718264E+05 -0.1234304E-02 -0.7704171E-02  0.7070150E+05  0.2589261E+05
  0.4300000E+01  0.6433148E+05  0.2108307E+05 -0.1234304E-02 -0.9002067E-02  0.7070150E+05  0.2116220E+05
  0.4400000E+01  0.6433148E+05  0.1494671E+05 -0.1234304E-02 -0.9503612E-02  0.7070150E+05  0.1630380E+05
  0.4500000E+01  0.6433148E+05  0.8900945E+04 -0.1234304E-02 -0.9189754E-02  0.7070150E+05  0.1145688E+05
  0.4600000E+01  0.6433148E+05  0.3068111E+04 -0.1234304E-02 -0.8107202E-02  0.7070150E+05  0.6746596E+04
  0.4700000E+01  0.6433148E+05 -0.2434892E+04 -0.1234304E-02 -0.6363399E-02  0.7070150E+05  0.2282061E+04
  0.4800000E+01  0.6433148E+05 -0.7498310E+04 -0.1234304E-02 -0.4116702E-02  0.7070150E+05 -0.1844828E+04
  0.4900000E+01  0.6433148E+05 -0.1202201E+05 -0.1234304E-02 -0.1562553E-02  0.7070150E+05 -0.5559903E+04
  0.5000000E+01  0.6433148E+05 -0.1591907E+05 -0.1234304E-02  0.1083000E-02  0.7070150E+05 -0.8806800E+04
  0.5100000E+01  0.6433148E+05 -0.1911907E+05 -0.1234304E-02  0.3601148E-02  0.7070150E+05 -0.1154638E+05
  0.5200000E+01  0.6433148E+05 -0.2157189E+05 -0.1234304E-02  0.5787978E-02  0.7070150E+05 -0.1375604E+05
  0.5300000E+01  0.6433148E+05 -0.2325053E+05 -0.1234304E-02  0.7470544E-02  0.7070150E+05 -0.1542852E+05
  0.5400000E+01  0.6433148E+05 -0.2415328E+05 -0.1234304E-02  0.8520128E-02  0.7070150E+05 -0.1657072E+05
  0.5500000E+01  0.6433148E+05 -0.2430434E+05 -0.1234304E-02  0.8861553E-02  0.7070150E+05 -0.1720204E+05
  0.5600000E+01  0.6433148E+05 -0.2375309E+05 -0.1234304E-02  0.8478004E-02  0.7070150E+05 -0.1735291E+05
  0.5700000E+01  0.6433148E+05 -0.2257192E+05 -0.1234304E-02  0.7411006E-02  0.7070150E+05 -0.1706296E+05
  0.5800000E+01  0.6433148E+05 -0.2085246E+05 -0.1234304E-02  0.5755739E-02  0.7070150E+05 -0.1637934E+05
  0.5900000E+01  0.6433148E+05 -0.1870078E+05 -0.1234304E-02  0.3652101E-02  0.7070150E+05 -0.1535485E+05
  0.6000000E+01  0.6433148E+05 -0.1623153E+05 -0.1234304E-02  0.1272417E-02  0.7070150E+05 -0.1404616E+05
  0.6100000E+01  0.6433148E+05 -0.1356194E+05 -0.1234304E-02 -0.1193119E-02  0.7070150E+05 -0.1251207E+05
  0.6200000E+01  0.6433148E+05 -0.1080565E+05 -0.1234304E-02 -0.3552083E-02  0.7070150E+05 -0.1081181E+05
  0.6300000E+01  0.6433148E+05 -0.8067219E+04 -0.1234304E-02 -0.5625146E-02  0.7070150E+05 -0.9003475E+04
  0.6400000E+01  0.6433148E+05 -0.5437451E+04 -0.1234304E-02 -0.7260076E-02  0.7070150E+05 -0.7142639E+04
  0.6500000E+01  0.6433148E+05 -0.2989816E+04 -0.1234304E-02 -0.8342970E-02  0.7070150E+05 -0.5280924E+04
  0.6600000E+01  0.6433148E+05 -0.7787519E+03 -0.1234304E-02 -0.8806263E-02  0.7070150E+05 -0.3465177E+04
  0.6700000E+01  0.6433148E+05  0.1161035E+04 -0.1234304E-02 -0.8632700E-02  0.7070150E+05 -0.1736479E+04
  0.6800000E+01  0.6433148E+05  0.2813523E+04 -0.1234304E-02 -0.7855211E-02  0.7070150E+05 -0.1295959E+03
  0.6900000E+01  0.6433148E+05  0.4179124E+04 -0.1234304E-02 -0.6552764E-02  0.7070150E+05  0.1327315E+04
  0.7000000E+01  0.6433148E+05  0.5271489E+04 -0.1234304E-02 -0.4842653E-02  0.7070150E+05  0.2612879E+04
  0.7100000E+01  0.6433148E+05  0.6113747E+04 -0.1234304E-02 -0.2870055E-02  0.7070150E+05  0.3712342E+04
  0.7200000E+01  0.6433148E+05  0.6734417E+04 -0.1234304E-02 -0.7955756E-03  0.7070150E+05  0.4617272E+04
  0.7300000E+01  0.6433148E+05  0.7163640E+04 -0.1234304E-02  0.1217870E-02  0.7070150E+05  0.5325084E+04
  0.7400000E+01  0.6433148E+05  0.7429677E+04 -0.1234304E-02  0.3018027E-02  0.7070150E+05  0.5838355E+04
  0.7500000E+01  0.6433148E+05  0.7556578E+04 -0.1234304E-02  0.4474975E-02  0.7070150E+05  0.6164246E+04
  0.7600000E+01  0.6433148E+05  0.7562445E+04 -0.1234304E-02  0.5490530E-02  0.7070150E+05  0.6313637E+04
  0.7700000E+01  0.6433148E+05  0.7458969E+04 -0.1234304E-02  0.6004886E-02  0.7070150E+05  0.6300445E+04
  0.7800000E+01  0.6433148E+05  0.7251858E+04 -0.1234304E-02  0.5999909E-02  0.7070150E+05  0.6140831E+04
  0.7900000E+01  0.6433148E+05  0.6942187E+04 -0.1234304E-02  0.5499060E-02  0.7070150E+05  0.5852553E+04
  0.8000000E+01  0.6433148E+05  0.6528284E+04 -0.1234304E-02  0.4563975E-02  0.7070150E+05  0.5454345E+04
  0.8100000E+01  0.6433148E+05  0.6008166E+04 -0.1234304E-02  0.3288144E-02  0.7070150E+05  0.4965396E+04
  0.8200000E+01  0.6433148E+05  0.5381740E+04 -0.1234304E-02  0.1788395E-02  0.7070150E+05  0.4404895E+04
  0.8300000E+01  0.6433148E+05  0.4653000E+04 -0.1234304E-02  0.1947011E-03  0.7070150E+05  0.3791660E+04
  0.8400001E+01  0.6433148E+05  0.3831565E+04 -0.1234304E-02 -0.1360466E-02  0.7070150E+05  0.3143831E+04
  0.8500000E+01  0.6433148E+05  0.2933686E+04 -0.1234304E-02 -0.2752717E-02  0.7070150E+05  0.2478732E+04
  0.8600000E+01  0.6433148E+05  0.1982235E+04 -0.1234304E-02 -0.3875223E-02  0.7070150E+05  0.1812558E+04
  0.8700000E+01  0.6433148E+05  0.1005987E+04 -0.1234304E-02 -0.4646386E-02  0.7070150E+05  0.1160307E+04
  0.8800000E+01  0.6433148E+05  0.3808994E+02 -0.1234304E-02 -0.5015296E-02  0.7070150E+05  0.5355598E+03
  0.8900001E+01  0.6433148E+05 -0.8858401E+03 -0.1234304E-02 -0.4964526E-02  0.7070150E+05 -0.4946318E+02
  0.9000000E+01  0.6433148E+05 -0.1730675E+04 -0.1234304E-02 -0.4510152E-02  0.7070150E+05 -0.5843480E+03
  0.9100000E+01  0.6433148E+05 -0.2463883E+04 -0.1234304E-02 -0.3699256E-02  0.7070150E+05 -0.1060224E+04
  0.9200000E+01  0.6433148E+05 -0.3058466E+04 -0.1234304E-02 -0.2605058E-02  0.7070150E+05 -0.1470185E+04
  0.9300000E+01  0.6433148E+05 -0.3494872E+04 -0.1234304E-02 -0.1320149E-02  0.7070150E+05 -0.1809188E+04
  0.9400001E+01  0.6433148E+05 -0.3762600E+04 -0.1234304E-02  0.5129021E-04  0.7070150E+05 -0.2074183E+04
  0.9500000E+01  0.6433148E+05 -0.3860991E+04 -0.1234304E-02  0.1402057E-02  0.7070150E+05 -0.2264141E+04
  0.9600000E+01  0.6433148E+05 -0.3799224E+04 -0.1234304E-02  0.2630241E-02  0.7070150E+05 -0.2380049E+04
  0.9700000E+01  0.6433148E+05 -0.3595345E+04 -0.1234304E-02  0.3646746E-02  0.7070150E+05 -0.2424750E+04
  0.9800000E+01  0.6433148E+05 -0.3274815E+04 -0.1234304E-02  0.4381607E-02  0.7070150E+05 -0.2402908E+04
  0.9900001E+01  0.6433148E+05 -0.2868107E+04 -0.1234304E-02  0.4788486E-02  0.7070150E+05 -0.2320644E+04
  0.1000000E+02  0.6433148E+05 -0.2408516E+04 -0.1234304E-02  0.4847188E-02  0.7070150E+05 -0.2185518E+04
  0.1010000E+02  0.6433148E+05 -0.1929043E+04 -0.1234304E-02  0.4564126E-02  0.7070150E+05 -0.2005938E+04
  0.1020000E+02  0.6433148E+05 -0.1460279E+04 -0.1234304E-02  0.3970720E-02  0.7070150E+05 -0.1791105E+04
  0.1030000E+02  0.6433148E+05 -0.1027762E+04 -0.1234304E-02  0.3119988E-02  0.7070150E+05 -0.1550376E+04
  0.1040000E+02  0.6433148E+05 -0.6506561E+03 -0.1234304E-02  0.2081746E-02  0.7070150E+05 -0.1293124E+04
  0.1050000E+02  0.6433148E+05 -0.3405532E+03 -0.1234304E-02  0.9366896E-03  0.7070150E+05 -0.1028294E+04
  0.1060000E+02  0.6433148E+05 -0.1013620E+03 -0.1234304E-02 -0.2300091E-03  0.7070150E+05 -0.7641501E+03
  0.1070000E+02  0.6433148E+05  0.7039556E+02 -0.1234304E-02 -0.1335106E-02  0.7070150E+05 -0.5079470E+03
  0.1080000E+02  0.6433148E+05  0.1841014E+03 -0.1234304E-02 -0.2303314E-02  0.7070150E+05 -0.2659421E+03
  0.1090000E+02  0.6433148E+05  0.2538045E+03 -0.1234304E-02 -0.3072404E-02  0.7070150E+05 -0.4304319E+02
  0.1100000E+02  0.6433148E+05  0.2959571E+03 -0.1234304E-02 -0.3597141E-02  0.7070150E+05  0.1570729E+03
  0.1110000E+02  0.6433148E+05  0.3272615E+03 -0.1234304E-02 -0.3851835E-02  0.7070150E+05  0.3319003E+03
  0.1120000E+02  0.6433148E+05  0.3628141E+03 -0.1234304E-02 -0.3831323E-02  0.7070150E+05  0.4800885E+03
  0.1130000E+02  0.6433148E+05  0.4144720E+03 -0.1234304E-02 -0.3550416E-02  0.7070150E+05  0.6013826E+03
  0.1140000E+02  0.6433148E+05  0.4893195E+03 -0.1234304E-02 -0.3042059E-02  0.7070150E+05  0.6962115E+03
  0.1150000E+02  0.6433148E+05  0.5892373E+03 -0.1234304E-02 -0.2354173E-02  0.7070150E+05  0.7657336E+03
  0.1160000E+02  0.6433148E+05  0.7107444E+03 -0.1234304E-02 -0.1545684E-02  0.7070150E+05  0.8115192E+03
  0.1170000E+02  0.6433148E+05  0.8455698E+03 -0.1234304E-02 -0.6818791E-03  0.7070150E+05  0.8354189E+03
  0.1180000E+02  0.6433148E+05  0.9817784E+03 -0.1234304E-02  0.1703884E-03  0.7070150E+05  0.8394508E+03
  0.1190000E+02  0.6433148E+05  0.1105128E+04 -0.1234304E-02  0.9474175E-03  0.7070150E+05  0.8256063E+03
  0.1200000E+02  0.6433148E+05  0.1200894E+04 -0.1234304E-02  0.1593021E-02  0.7070150E+05  0.7958602E+03
  0.1210000E+02  0.6433148E+05  0.1255646E+04 -0.1234304E-02  0.2062108E-02  0.7070150E+05  0.7521282E+03
  0.1220000E+02  0.6433148E+05  0.1258643E+04 -0.1234304E-02  0.2323439E-02  0.7070150E+05  0.6961581E+03
  0.1230000E+02  0.6433148E+05  0.1203429E+04 -0.1234304E-02  0.2361325E-02  0.7070150E+05  0.6297124E+03
  0.1240000E+02  0.6433148E+05  0.1088494E+04 -0.1234304E-02  0.2176252E-02  0.7070150E+05  0.5545119E+03
  0.1250000E+02  0.6433148E+05  0.9178033E+03 -0.1234304E-02  0.1784412E-02  0.7070150E+05  0.4723575E+03
  0.1260000E+02  0.6433148E+05  0.7001137E+03 -0.1234304E-02  0.1216259E-02  0.7070150E+05  0.3849489E+03
  0.1270000E+02  0.6433148E+05  0.4490035E+03 -0.1234304E-02  0.5141363E-03  0.7070150E+05  0.2943568E+03
  0.1280000E+02  0.6433148E+05  0.1808808E+03 -0.1234304E-02 -0.2707206E-03  0.7070150E+05  0.2025303E+03
  0.1290000E+02  0.6433148E+05 -0.8592393E+02 -0.1234304E-02 -0.1081691E-02  0.7070150E+05  0.1116741E+03
  0.1300000E+02  0.6433148E+05 -0.3333620E+03 -0.1234304E-02 -0.1860486E-02  0.7070150E+05  0.2385486E+02
  0.1310000E+02  0.6433148E+05 -0.5447507E+03 -0.1234304E-02 -0.2551041E-02  0.7070150E+05 -0.5867112E+02
  0.1320000E+02  0.6433148E+05 -0.7068128E+03 -0.1234304E-02 -0.3102897E-02  0.7070150E+05 -0.1339095E+03
  0.1330000E+02  0.6433148E+05 -0.8105211E+03 -0.1234304E-02 -0.3474461E-02  0.7070150E+05 -0.2000098E+03
  0.1340000E+02  0.6433148E+05 -0.8519660E+03 -0.1234304E-02 -0.3635501E-02  0.7070150E+05 -0.2554232E+03
  0.1350000E+02  0.6433148E+05 -0.8325960E+03 -0.1234304E-02 -0.3568993E-02  0.7070150E+05 -0.2990199E+03
  0.1360000E+02  0.6433148E+05 -0.7589141E+03 -0.1234304E-02 -0.3272074E-02  0.7070150E+05 -0.3301042E+03
  0.1370000E+02  0.6433148E+05 -0.6416944E+03 -0.1234304E-02 -0.2756252E-02  0.7070150E+05 -0.3484427E+03
  0.1380000E+02  0.6433148E+05 -0.4950586E+03 -0.1234304E-02 -0.2046588E-02  0.7070150E+05 -0.3544489E+03
  0.1390000E+02  0.6433148E+05 -0.3347473E+03 -0.1234304E-02 -0.1180200E-02  0.7070150E+05 -0.3489116E+03
  0.1400000E+02  0.6433148E+05 -0.1767528E+03 -0.1234304E-02 -0.2040387E-03  0.7070150E+05 -0.3331235E+03
  0.1410000E+02  0.6433148E+05 -0.3568102E+02 -0.1234304E-02  0.8280420E-03  0.7070150E+05 -0.3086652E+03
  0.1420000E+02  0.6433148E+05  0.7639899E+02 -0.1234304E-02  0.1858501E-02  0.7070150E+05 -0.2774554E+03
  0.1430000E+02  0.6433148E+05  0.1512115E+03 -0.1234304E-02  0.2829584E-02  0.7070150E+05 -0.2415146E+03
  0.1440000E+02  0.6433148E+05  0.1848357E+03 -0.1234304E-02  0.3686822E-02  0.7070150E+05 -0.2028463E+03
  0.1450000E+02  0.6433148E+05  0.1779348E+03 -0.1234304E-02  0.4382365E-02  0.7070150E+05 -0.1633379E+03
  0.1460000E+02  0.6433148E+05  0.1353144E+03 -0.1234304E-02  0.4877885E-02  0.7070150E+05 -0.1247523E+03
  0.1470000E+02  0.6433148E+05  0.6575189E+02 -0.1234304E-02  0.5146895E-02  0.7070150E+05 -0.8832514E+02
  0.1480000E+02  0.6433148E+05 -0.1986767E+02 -0.1234304E-02  0.5176404E-02  0.7070150E+05 -0.5518864E+02
  0.1490000E+02  0.6433148E+05 -0.1089531E+03 -0.1234304E-02  0.4967620E-02  0.7070150E+05 -0.2591313E+02
  0.1500000E+02  0.6433148E+05 -0.1892123E+03 -0.1234304E-02  0.4535972E-02  0.7070150E+05 -0.8145544E+00
  0.1510000E+02  0.6433148E+05 -0.2495070E+03 -0.1234304E-02  0.3909993E-02  0.7070150E+05  0.2023955E+02
  0.1520000E+02  0.6433148E+05 -0.2814111E+03 -0.1234304E-02  0.3129510E-02  0.7070150E+05  0.3748796E+02
  0.1530000E+02  0.6433148E+05 -0.2796516E+03 -0.1234304E-02  0.2243100E-02  0.7070150E+05  0.5151047E+02
  0.1540000E+02  0.6433148E+05 -0.2430168E+03 -0.1234304E-02  0.1304917E-02  0.7070150E+05  0.6281038E+02
  0.1550000E+02  0.6433148E+05 -0.1739193E+03 -0.1234304E-02  0.3711930E-03  0.7070150E+05  0.7211623E+02
  0.1560000E+02  0.6433148E+05 -0.7849831E+02 -0.1234304E-02 -0.5035062E-03  0.7070150E+05  0.7994547E+02
  0.1570000E+02  0.6433148E+05  0.3397853E+02 -0.1234304E-02 -0.1269728E-02  0.7070150E+05  0.8659760E+02
  0.1580000E+02  0.6433148E+05  0.1527244E+03 -0.1234304E-02 -0.1886485E-02  0.7070150E+05  0.9241792E+02
  0.1590000E+02  0.6433148E+05  0.2659238E+03 -0.1234304E-02 -0.2323818E-02  0.7070150E+05  0.9738108E+02
Zone t="DoF    2",I=   160,F=POINT
  0.0000000E+00  0.2754495E-02  0.1987128E-01  0.7537793E+05  0.4644111E+05 -0.1907237E-02  0.1612767E-01
  0.1000000E+00  0.2754495E-02  0.1947728E-01  0.7537793E+05  0.4506708E+05 -0.1907237E-02  0.1576652E-01
  0.2000000E+00  0.2754495E-02  0.1831081E-01  0.7537793E+05  0.4103812E+05 -0.1907237E-02  0.1470063E-01
  0.3000000E+00  0.2754495E-02  0.1641798E-01  0.7537793E+05  0.3462671E+05 -0.1907237E-02  0.1298177E-01
  0.4000000E+00  0.2754495E-02  0.1387364E-01  0.7537793E+05  0.2626470E+05 -0.1907237E-02  0.1069316E-01
  0.5000000E+00  0.2754495E-02  0.1077866E-01  0.7537793E+05  0.1651164E+05 -0.1907237E-02  0.7945019E-02
  0.6000000E+00  0.2754495E-02  0.7256061E-02  0.7537793E+05  0.6014019E+04 -0.1907237E-02  0.4868776E-02
  0.7000000E+00  0.2754495E-02  0.3446287E-02  0.7537793E+05 -0.4541545E+04 -0.1907237E-02  0.1610140E-02
  0.8000000E+00  0.2754495E-02 -0.4982504E-03  0.7537793E+05 -0.1447740E+05 -0.1907237E-02 -0.1678468E-02
  0.9000000E+00  0.2754495E-02 -0.4419198E-02  0.7537793E+05 -0.2317262E+05 -0.1907237E-02 -0.4845726E-02
  0.1000000E+01  0.2754495E-02 -0.8158640E-02  0.7537793E+05 -0.3010575E+05 -0.1907237E-02 -0.7749049E-02
  0.1100000E+01  0.2754495E-02 -0.1156558E-01  0.7537793E+05 -0.3488944E+05 -0.1907237E-02 -0.1026161E-01
  0.1200000E+01  0.2754495E-02 -0.1450223E-01  0.7537793E+05 -0.3729438E+05 -0.1907237E-02 -0.1227835E-01
  0.1300000E+01  0.2754495E-02 -0.1684998E-01  0.7537793E+05 -0.3726102E+05 -0.1907237E-02 -0.1372070E-01
  0.1400000E+01  0.2754495E-02 -0.1851451E-01  0.7537793E+05 -0.3489846E+05 -0.1907237E-02 -0.1453983E-01
  0.1500000E+01  0.2754495E-02 -0.1943013E-01  0.7537793E+05 -0.3047082E+05 -0.1907237E-02 -0.1471807E-01
  0.1600000E+01  0.2754495E-02 -0.1956279E-01  0.7537793E+05 -0.2437264E+05 -0.1907237E-02 -0.1426881E-01
  0.1700000E+01  0.2754495E-02 -0.1891184E-01  0.7537793E+05 -0.1709535E+05 -0.1907237E-02 -0.1323465E-01
  0.1800000E+01  0.2754495E-02 -0.1751025E-01  0.7537793E+05 -0.9187757E+04 -0.1907237E-02 -0.1168409E-01
  0.1900000E+01  0.2754495E-02 -0.1542327E-01  0.7537793E+05 -0.1213754E+04 -0.1907237E-02 -0.9706981E-02
  0.2000000E+01  0.2754495E-02 -0.1274562E-01  0.7537793E+05  0.6289314E+04 -0.1907237E-02 -0.7409059E-02
  0.2100000E+01  0.2754495E-02 -0.9597159E-02  0.7537793E+05  0.1284847E+05 -0.1907237E-02 -0.4905852E-02
  0.2200000E+01  0.2754495E-02 -0.6117428E-02  0.7537793E+05  0.1808632E+05 -0.1907237E-02 -0.2316390E-02
  0.2300000E+01  0.2754495E-02 -0.2459032E-02  0.7537793E+05  0.2174354E+05 -0.1907237E-02  0.2429810E-03
  0.2400000E+01  0.2754495E-02  0.1219534E-02  0.7537793E+05  0.2369107E+05 -0.1907237E-02  0.2664263E-02
  0.2500000E+01  0.2754495E-02  0.4761389E-02  0.7537793E+05  0.2393168E+05 -0.1907237E-02  0.4852693E-02
  0.2600000E+01  0.2754495E-02  0.8018788E-02  0.7537793E+05  0.2259133E+05 -0.1907237E-02  0.6730669E-02
  0.2700000E+01  0.2754495E-02  0.1086004E-01  0.7537793E+05  0.1990132E+05 -0.1907237E-02  0.8240433E-02
  0.2800000E+01  0.2754495E-02  0.1317566E-01  0.7537793E+05  0.1617329E+05 -0.1907237E-02  0.9345551E-02
  0.2900000E+01  0.2754495E-02  0.1488334E-01  0.7537793E+05  0.1176939E+05 -0.1907237E-02  0.1003109E-01
  0.3000000E+01  0.2754495E-02  0.1593133E-01  0.7537793E+05  0.7070374E+04 -0.1907237E-02  0.1030263E-01
  0.3100000E+01  0.2754495E-02  0.1630034E-01  0.7537793E+05  0.2444281E+04 -0.1907237E-02  0.1018423E-01
  0.3200000E+01  0.2754495E-02  0.1600361E-01  0.7537793E+05 -0.1781696E+04 -0.1907237E-02  0.9715512E-02
  0.3300000E+01  0.2754495E-02  0.1508519E-01  0.7537793E+05 -0.5344120E+04 -0.1907237E-02  0.8948193E-02
  0.3400000E+01  0.2754495E-02  0.1361670E-01  0.7537793E+05 -0.8059167E+04 -0.1907237E-02  0.7942176E-02
  0.3500000E+01  0.2754495E-02  0.1169269E-01  0.7537793E+05 -0.9830762E+04 -0.1907237E-02  0.6761620E-02
  0.3600000E+01  0.2754495E-02  0.9424752E-02  0.7537793E+05 -0.1065068E+05 -0.1907237E-02  0.5471099E-02
  0.3700000E+01  0.2754495E-02  0.6935042E-02  0.7537793E+05 -0.1059112E+05 -0.1907237E-02  0.4132191E-02
  0.3800000E+01  0.2754495E-02  0.4349361E-02  0.7537793E+05 -0.9790846E+04 -0.1907237E-02  0.2800572E-02
  0.3900000E+01  0.2754495E-02  0.1790292E-02  0.7537793E+05 -0.8436667E+04 -0.1907237E-02  0.1523787E-02
  0.4000000E+01  0.2754495E-02 -0.6291068E-03  0.7537793E+05 -0.6742067E+04 -0.1907237E-02  0.3398257E-03
  0.4100000E+01  0.2754495E-02 -0.2810909E-02  0.7537793E+05 -0.4925096E+04 -0.1907237E-02 -0.7236144E-03
  0.4200000E+01  0.2754495E-02 -0.4676689E-02  0.7537793E+05 -0.3187671E+04 -0.1907237E-02 -0.1649077E-02
  0.4300000E+01  0.2754495E-02 -0.6170526E-02  0.7537793E+05 -0.1698007E+04 -0.1907237E-02 -0.2428639E-02
  0.4400000E+01  0.2754495E-02 -0.7260647E-02  0.7537793E+05 -0.5775314E+03 -0.1907237E-02 -0.3062738E-02
  0.4500000E+01  0.2754495E-02 -0.7939411E-02  0.7537793E+05  0.1066574E+03 -0.1907237E-02 -0.3558539E-02
  0.4600000E+01  0.2754495E-02 -0.8221907E-02  0.7537793E+05  0.3435063E+03 -0.1907237E-02 -0.3928113E-02
  0.4700000E+01  0.2754495E-02 -0.8143287E-02  0.7537793E+05  0.1741769E+03 -0.1907237E-02 -0.4186560E-02
  0.4800000E+01  0.2754495E-02 -0.7755006E-02  0.7537793E+05 -0.3167550E+03 -0.1907237E-02 -0.4350167E-02
  0.4900000E+01  0.2754495E-02 -0.7120328E-02  0.7537793E+05 -0.1013779E+04 -0.1907237E-02 -0.4434827E-02
  0.5000000E+01  0.2754495E-02 -0.6309431E-02  0.7537793E+05 -0.1785308E+04 -0.1907237E-02 -0.4454749E-02
  0.5100000E+01  0.2754495E-02 -0.5394356E-02  0.7537793E+05 -0.2499166E+04 -0.1907237E-02 -0.4421512E-02
  0.5200000E+01  0.2754495E-02 -0.4444295E-02  0.7537793E+05 -0.3037250E+04 -0.1907237E-02 -0.4343578E-02
  0.5300000E+01  0.2754495E-02 -0.3521367E-02  0.7537793E+05 -0.3307881E+04 -0.1907237E-02 -0.4226151E-02
  0.5400000E+01  0.2754495E-02 -0.2677210E-02  0.7537793E+05 -0.3254824E+04 -0.1907237E-02 -0.4071452E-02
  0.5500000E+01  0.2754495E-02 -0.1950513E-02  0.7537793E+05 -0.2862020E+04 -0.1907237E-02 -0.3879233E-02
  0.5600000E+01  0.2754495E-02 -0.1365613E-02  0.7537793E+05 -0.2154019E+04 -0.1907237E-02 -0.3647550E-02
  0.5700000E+01  0.2754495E-02 -0.9322298E-03  0.7537793E+05 -0.1192028E+04 -0.1907237E-02 -0.3373662E-02
  0.5800000E+01  0.2754495E-02 -0.6461837E-03  0.7537793E+05 -0.6631585E+02 -0.1907237E-02 -0.3054936E-02
  0.5900000E+01  0.2754495E-02 -0.4910237E-03  0.7537793E+05  0.1114209E+04 -0.1907237E-02 -0.2689704E-02
  0.6000000E+01  0.2754495E-02 -0.4404412E-03  0.7537793E+05  0.2234092E+04 -0.1907237E-02 -0.2277990E-02
  0.6100000E+01  0.2754495E-02 -0.4611602E-03  0.7537793E+05  0.3183667E+04 -0.1907237E-02 -0.1822037E-02
  0.6200000E+01  0.2754495E-02 -0.5161519E-03  0.7537793E+05  0.3870555E+04 -0.1907237E-02 -0.1326597E-02
  0.6300000E+01  0.2754495E-02 -0.5678683E-03  0.7537793E+05  0.4229021E+04 -0.1907237E-02 -0.7990071E-03
  0.6400000E+01  0.2754495E-02 -0.5813410E-03  0.7537793E+05  0.4226466E+04 -0.1907237E-02 -0.2489888E-03
  0.6500000E+01  0.2754495E-02 -0.5268336E-03  0.7537793E+05  0.3866292E+04 -0.1907237E-02  0.3117487E-03
  0.6600000E+01  0.2754495E-02 -0.3820373E-03  0.7537793E+05  0.3187084E+04 -0.1907237E-02  0.8700439E-03
  0.6700000E+01  0.2754495E-02 -0.1336058E-03  0.7537793E+05  0.2258243E+04 -0.1907237E-02  0.1411941E-02
  0.6800000E+01  0.2754495E-02  0.2220922E-03  0.7537793E+05  0.1172618E+04 -0.1907237E-02  0.1923429E-02
  0.6900000E+01  0.2754495E-02  0.6788266E-03  0.7537793E+05  0.3684266E+02 -0.1907237E-02  0.2391110E-02
  0.7000000E+01  0.2754495E-02  0.1221107E-02  0.7537793E+05 -0.1039467E+04 -0.1907237E-02  0.2802848E-02
  0.7100000E+01  0.2754495E-02  0.1825370E-02  0.7537793E+05 -0.1954544E+04 -0.1907237E-02  0.3148298E-02
  0.7200000E+01  0.2754495E-02  0.2461636E-02  0.7537793E+05 -0.2624470E+04 -0.1907237E-02  0.3419286E-02
  0.7300000E+01  0.2754495E-02  0.3095573E-02  0.7537793E+05 -0.2991006E+04 -0.1907237E-02  0.3610062E-02
  0.7400000E+01  0.2754495E-02  0.3690701E-02  0.7537793E+05 -0.3026912E+04 -0.1907237E-02  0.3717367E-02
  0.7500000E+01  0.2754495E-02  0.4210734E-02  0.7537793E+05 -0.2737989E+04 -0.1907237E-02  0.3740390E-02
  0.7600000E+01  0.2754495E-02  0.4621859E-02  0.7537793E+05 -0.2161822E+04 -0.1907237E-02  0.3680607E-02
  0.7700000E+01  0.2754495E-02  0.4894744E-02  0.7537793E+05 -0.1363455E+04 -0.1907237E-02  0.3541515E-02
  0.7800000E+01  0.2754495E-02  0.5006365E-02  0.7537793E+05 -0.4284532E+03 -0.1907237E-02  0.3328364E-02
  0.7900000E+01  0.2754495E-02  0.4941379E-02  0.7537793E+05  0.5460010E+03 -0.1907237E-02  0.3047840E-02
  0.8000000E+01  0.2754495E-02  0.4693107E-02  0.7537793E+05  0.1460781E+04 -0.1907237E-02  0.2707774E-02
  0.8100000E+01  0.2754495E-02  0.4264042E-02  0.7537793E+05  0.2224760E+04 -0.1907237E-02  0.2316928E-02
  0.8200000E+01  0.2754495E-02  0.3665888E-02  0.7537793E+05  0.2763447E+04 -0.1907237E-02  0.1884784E-02
  0.8300000E+01  0.2754495E-02  0.2919100E-02  0.7537793E+05  0.3026093E+04 -0.1907237E-02  0.1421419E-02
  0.8400001E+01  0.2754495E-02  0.2052056E-02  0.7537793E+05  0.2990133E+04 -0.1907237E-02  0.9374213E-03
  0.8500000E+01  0.2754495E-02  0.1099764E-02  0.7537793E+05  0.2662881E+04 -0.1907237E-02  0.4438359E-03
  0.8600000E+01  0.2754495E-02  0.1022400E-03  0.7537793E+05  0.2080203E+04 -0.1907237E-02 -0.4791538E-04
  0.8700000E+01  0.2754495E-02 -0.8973598E-03  0.7537793E+05  0.1302480E+04 -0.1907237E-02 -0.5261085E-03
  0.8800000E+01  0.2754495E-02 -0.1854835E-02  0.7537793E+05  0.4081848E+03 -0.1907237E-02 -0.9788709E-03
  0.8900001E+01  0.2754495E-02 -0.2727109E-02  0.7537793E+05 -0.5140425E+03 -0.1907237E-02 -0.1394381E-02
  0.9000000E+01  0.2754495E-02 -0.3474443E-02  0.7537793E+05 -0.1374362E+04 -0.1907237E-02 -0.1761206E-02
  0.9100000E+01  0.2754495E-02 -0.4062573E-02  0.7537793E+05 -0.2090414E+04 -0.1907237E-02 -0.2068689E-02
  0.9200000E+01  0.2754495E-02 -0.4464573E-02  0.7537793E+05 -0.2595192E+04 -0.1907237E-02 -0.2307411E-02
  0.9300000E+01  0.2754495E-02 -0.4662537E-02  0.7537793E+05 -0.2843323E+04 -0.1907237E-02 -0.2469762E-02
  0.9400001E+01  0.2754495E-02 -0.4648757E-02  0.7537793E+05 -0.2814963E+04 -0.1907237E-02 -0.2550449E-02
  0.9500000E+01  0.2754495E-02 -0.4426483E-02  0.7537793E+05 -0.2517278E+04 -0.1907237E-02 -0.2547044E-02
  0.9600000E+01  0.2754495E-02 -0.4010079E-02  0.7537793E+05 -0.1983187E+04 -0.1907237E-02 -0.2460391E-02
  0.9700000E+01  0.2754495E-02 -0.3424622E-02  0.7537793E+05 -0.1267670E+04 -0.1907237E-02 -0.2294915E-02
  0.9800000E+01  0.2754495E-02 -0.2704820E-02  0.7537793E+05 -0.4420131E+03 -0.1907237E-02 -0.2058733E-02
  0.9900001E+01  0.2754495E-02 -0.1893322E-02  0.7537793E+05  0.4133719E+03 -0.1907237E-02 -0.1763503E-02
  0.1000000E+02  0.2754495E-02 -0.1038565E-02  0.7537793E+05  0.1216865E+04 -0.1907237E-02 -0.1424107E-02
  0.1010000E+02  0.2754495E-02 -0.1919586E-03  0.7537793E+05  0.1893558E+04 -0.1907237E-02 -0.1057955E-02
  0.1020000E+02  0.2754495E-02  0.5949656E-03  0.7537793E+05  0.2382181E+04 -0.1907237E-02 -0.6842146E-03
  0.1030000E+02  0.2754495E-02  0.1273910E-02  0.7537793E+05  0.2640750E+04 -0.1907237E-02 -0.3226464E-03
  0.1040000E+02  0.2754495E-02  0.1802852E-02  0.7537793E+05  0.2650048E+04 -0.1907237E-02  0.7517085E-05
  0.1050000E+02  0.2754495E-02  0.2149001E-02  0.7537793E+05  0.2415024E+04 -0.1907237E-02  0.2888700E-03
  0.1060000E+02  0.2754495E-02  0.2291260E-02  0.7537793E+05  0.1963590E+04 -0.1907237E-02  0.5070539E-03
  0.1070000E+02  0.2754495E-02  0.2222084E-02  0.7537793E+05  0.1343497E+04 -0.1907237E-02  0.6518760E-03
  0.1080000E+02  0.2754495E-02  0.1948450E-02  0.7537793E+05  0.6171797E+03 -0.1907237E-02  0.7181691E-03
  0.1090000E+02  0.2754495E-02  0.1491998E-02  0.7537793E+05 -0.1444954E+03 -0.1907237E-02  0.7063787E-03
  0.1100000E+02  0.2754495E-02  0.8881246E-03  0.7537793E+05 -0.8692816E+03 -0.1907237E-02  0.6227774E-03
  0.1110000E+02  0.2754495E-02  0.1840208E-03  0.7537793E+05 -0.1490466E+04 -0.1907237E-02  0.4792006E-03
  0.1120000E+02  0.2754495E-02 -0.5641066E-03  0.7537793E+05 -0.1953025E+04 -0.1907237E-02  0.2924225E-03
  0.1130000E+02  0.2754495E-02 -0.1294658E-02  0.7537793E+05 -0.2218588E+04 -0.1907237E-02  0.8308227E-04
  0.1140000E+02  0.2754495E-02 -0.1944854E-02  0.7537793E+05 -0.2268529E+04 -0.1907237E-02 -0.1257616E-03
  0.1150000E+02  0.2754495E-02 -0.2455187E-02  0.7537793E+05 -0.2105222E+04 -0.1907237E-02 -0.3103142E-03
  0.1160000E+02  0.2754495E-02 -0.2773989E-02  0.7537793E+05 -0.1751064E+04 -0.1907237E-02 -0.4479268E-03
  0.1170000E+02  0.2754495E-02 -0.2861558E-02  0.7537793E+05 -0.1245803E+04 -0.1907237E-02 -0.5189788E-03