VARIABLES="w (rad/s)"
"abs(F   1   1)" "angle(F   1   1)"
"abs(F   1   2)" "angle(F   1   2)"
"abs(F   1   3)" "angle(F   1   3)"
Zone t="Diffraction force - beta =   0.000 deg",I=   100,F=POINT
  0.1000000E+00  0.1187737E-01 -0.1570796E+01  0.5301249E-01 -0.3141240E+01  0.3635214E-01 -0.1570796E+01
  0.3010101E+00  0.1077551E+00 -0.1570796E+01  0.4822098E+00 -0.3138413E+01  0.3297976E+00 -0.1570796E+01
  0.5020202E+00  0.2986608E+00 -0.1570796E+01  0.1351095E+01 -0.3132854E+01  0.9140887E+00 -0.1570796E+01
  0.7030303E+00  0.5848101E+00 -0.1570796E+01  0.2668440E+01 -0.3124697E+01  0.1789881E+01 -0.1570796E+01
  0.9040404E+00  0.9654495E+00 -0.1570794E+01  0.4454344E+01 -0.3114175E+01  0.2954882E+01 -0.1570794E+01
  0.1105051E+01  0.1437008E+01 -0.1570789E+01  0.6709062E+01 -0.3101432E+01  0.4398138E+01 -0.1570789E+01
  0.1306061E+01  0.1996791E+01 -0.1570777E+01  0.9440421E+01 -0.3086690E+01  0.6111421E+01 -0.1570777E+01
  0.1507071E+01  0.2654504E+01 -0.1570750E+01  0.1265104E+02 -0.3070166E+01  0.8124413E+01 -0.1570750E+01
  0.1708081E+01  0.3380488E+01 -0.1570699E+01  0.1634770E+02 -0.3052133E+01  0.1034637E+02 -0.1570699E+01
  0.1909091E+01  0.4207240E+01 -0.1570610E+01  0.2050588E+02 -0.3032700E+01  0.1287671E+02 -0.1570610E+01
  0.2110101E+01  0.5087306E+01 -0.1570459E+01  0.2513472E+02 -0.3012202E+01  0.1557024E+02 -0.1570459E+01
  0.2311111E+01  0.6070649E+01 -0.1570222E+01  0.3019235E+02 -0.2990694E+01  0.1857984E+02 -0.1570222E+01
  0.2512121E+01  0.7098444E+01 -0.1569861E+01  0.3567641E+02 -0.2968487E+01  0.2172549E+02 -0.1569861E+01
  0.2713131E+01  0.8193268E+01 -0.1569335E+01  0.4155900E+02 -0.2945744E+01  0.2507627E+02 -0.1569335E+01
  0.2914141E+01  0.9377768E+01 -0.1568594E+01  0.4779501E+02 -0.2922555E+01  0.2870145E+02 -0.1568594E+01
  0.3115151E+01  0.1058525E+02 -0.1567567E+01  0.5435223E+02 -0.2899093E+01  0.3239700E+02 -0.1567567E+01
  0.3316161E+01  0.1183089E+02 -0.1566183E+01  0.6123407E+02 -0.2875716E+01  0.3620936E+02 -0.1566183E+01
  0.3517171E+01  0.1315364E+02 -0.1564378E+01  0.6834731E+02 -0.2852238E+01  0.4025764E+02 -0.1564378E+01
  0.3718182E+01  0.1451981E+02 -0.1562055E+01  0.7566656E+02 -0.2828867E+01  0.4443875E+02 -0.1562055E+01
  0.3919192E+01  0.1586397E+02 -0.1559085E+01  0.8316869E+02 -0.2805818E+01  0.4855251E+02 -0.1559085E+01
  0.4120202E+01  0.1721678E+02 -0.1555381E+01  0.9081709E+02 -0.2783189E+01  0.5269281E+02 -0.1555381E+01
  0.4321212E+01  0.1861234E+02 -0.1550872E+01  0.9856918E+02 -0.2761028E+01  0.5696372E+02 -0.1550872E+01
  0.4522222E+01  0.2001762E+02 -0.1545441E+01  0.1063526E+03 -0.2739218E+01  0.6126451E+02 -0.1545441E+01
  0.4723232E+01  0.2138976E+02 -0.1538949E+01  0.1141391E+03 -0.2717892E+01  0.6546382E+02 -0.1538949E+01
  0.4924242E+01  0.2267839E+02 -0.1531221E+01  0.1219253E+03 -0.2697314E+01  0.6940758E+02 -0.1531221E+01
  0.5125252E+01  0.2390171E+02 -0.1522211E+01  0.1296801E+03 -0.2677537E+01  0.7315128E+02 -0.1522211E+01
  0.5326262E+01  0.2507200E+02 -0.1511906E+01  0.1373373E+03 -0.2658336E+01  0.7673274E+02 -0.1511906E+01
  0.5527273E+01  0.2616734E+02 -0.1500250E+01  0.1448657E+03 -0.2639735E+01  0.8008483E+02 -0.1500250E+01
  0.5728283E+01  0.2714241E+02 -0.1487140E+01  0.1522443E+03 -0.2621844E+01  0.8306872E+02 -0.1487140E+01
  0.5929293E+01  0.2794157E+02 -0.1472422E+01  0.1594380E+03 -0.2604655E+01  0.8551410E+02 -0.1472421E+01
  0.6130303E+01  0.2851966E+02 -0.1455955E+01  0.1664279E+03 -0.2588242E+01  0.8728291E+02 -0.1455953E+01
  0.6331313E+01  0.2886323E+02 -0.1437804E+01  0.1731978E+03 -0.2572677E+01  0.8833418E+02 -0.1437803E+01
  0.6532323E+01  0.2897117E+02 -0.1418166E+01  0.1797296E+03 -0.2557978E+01  0.8866415E+02 -0.1418163E+01
  0.6733334E+01  0.2880927E+02 -0.1397073E+01  0.1859899E+03 -0.2544053E+01  0.8816824E+02 -0.1397070E+01
  0.6934343E+01  0.2833952E+02 -0.1374503E+01  0.1919446E+03 -0.2530771E+01  0.8673009E+02 -0.1374499E+01
  0.7135354E+01  0.2752945E+02 -0.1350457E+01  0.1975762E+03 -0.2518202E+01  0.8425034E+02 -0.1350452E+01
  0.7336363E+01  0.2635687E+02 -0.1325100E+01  0.2028699E+03 -0.2506335E+01  0.8066132E+02 -0.1325093E+01
  0.7537374E+01  0.2480543E+02 -0.1298568E+01  0.2078109E+03 -0.2495219E+01  0.7591283E+02 -0.1298558E+01
  0.7738384E+01  0.2285118E+02 -0.1270768E+01  0.2123792E+03 -0.2484807E+01  0.6993136E+02 -0.1270754E+01
  0.7939394E+01  0.2048213E+02 -0.1241509E+01  0.2165526E+03 -0.2475017E+01  0.6268058E+02 -0.1241490E+01
  0.8140405E+01  0.1769812E+02 -0.1210555E+01  0.2203194E+03 -0.2465886E+01  0.5415989E+02 -0.1210528E+01
  0.8341414E+01  0.1449990E+02 -0.1176981E+01  0.2236656E+03 -0.2457386E+01  0.4437144E+02 -0.1176942E+01
  0.8542424E+01  0.1089579E+02 -0.1138004E+01  0.2265822E+03 -0.2449554E+01  0.3334097E+02 -0.1137940E+01
  0.8743435E+01  0.6902440E+01 -0.1083241E+01  0.2290521E+03 -0.2442444E+01  0.2111929E+02 -0.1083118E+01
  0.8944445E+01  0.2561024E+01 -0.9263618E+00  0.2310641E+03 -0.2435992E+01  0.7832836E+01 -0.9258907E+00
  0.9145455E+01  0.2281273E+01  0.1802300E+01  0.2326123E+03 -0.2430136E+01  0.6988129E+01  0.1802079E+01
  0.9346465E+01  0.7287078E+01  0.1987921E+01  0.2336865E+03 -0.2424872E+01  0.2230795E+02  0.1987787E+01
  0.9547475E+01  0.1261699E+02  0.2043101E+01  0.2342730E+03 -0.2420262E+01  0.3861979E+02  0.2043006E+01
  0.9748485E+01  0.1820704E+02  0.2079816E+01  0.2343739E+03 -0.2416275E+01  0.5572780E+02  0.2079739E+01
  0.9949495E+01  0.2401791E+02  0.2109816E+01  0.2339727E+03 -0.2412969E+01  0.7351150E+02  0.2109750E+01
  0.1015051E+02  0.3001034E+02  0.2136257E+01  0.2330599E+03 -0.2410375E+01  0.9185078E+02  0.2136198E+01
  0.1035151E+02  0.3614615E+02  0.2160331E+01  0.2316410E+03 -0.2408454E+01  0.1106288E+03  0.2160276E+01
  0.1055252E+02  0.4238412E+02  0.2182634E+01  0.2297204E+03 -0.2407179E+01  0.1297193E+03  0.2182582E+01
  0.1075354E+02  0.4868446E+02  0.2203449E+01  0.2272976E+03 -0.2406544E+01  0.1490006E+03  0.2203399E+01
  0.1095455E+02  0.5501007E+02  0.2222816E+01  0.2243605E+03 -0.2406685E+01  0.1683594E+03  0.2222767E+01
  0.1115556E+02  0.6131757E+02  0.2240972E+01  0.2209222E+03 -0.2407550E+01  0.1876625E+03  0.2240924E+01
  0.1135657E+02  0.6756873E+02  0.2257972E+01  0.2169879E+03 -0.2409195E+01  0.2067931E+03  0.2257926E+01
  0.1155758E+02  0.7372523E+02  0.2273810E+01  0.2125456E+03 -0.2411731E+01  0.2256340E+03  0.2273764E+01
  0.1175859E+02  0.7974637E+02  0.2288571E+01  0.2076033E+03 -0.2415160E+01  0.2440607E+03  0.2288524E+01
  0.1195960E+02  0.8559754E+02  0.2302314E+01  0.2021831E+03 -0.2419562E+01  0.2619671E+03  0.2302268E+01
  0.1216061E+02  0.9123792E+02  0.2315135E+01  0.1963029E+03 -0.2424980E+01  0.2792284E+03  0.2315089E+01
  0.1236162E+02  0.9663038E+02  0.2327106E+01  0.1899933E+03 -0.2431459E+01  0.2957308E+03  0.2327058E+01
  0.1256263E+02  0.1017421E+03  0.2338059E+01  0.1832078E+03 -0.2439292E+01  0.3113738E+03  0.2338012E+01
  0.1276364E+02  0.1065352E+03  0.2348097E+01  0.1759826E+03 -0.2448651E+01  0.3260418E+03  0.2348049E+01
  0.1296465E+02  0.1109750E+03  0.2357379E+01  0.1683519E+03 -0.2459617E+01  0.3396289E+03  0.2357331E+01
  0.1316566E+02  0.1150289E+03  0.2365795E+01  0.1602851E+03 -0.2472674E+01  0.3520349E+03  0.2365745E+01
  0.1336667E+02  0.1186628E+03  0.2373362E+01  0.1517570E+03 -0.2488172E+01  0.3631558E+03  0.2373311E+01
  0.1356768E+02  0.1218458E+03  0.2380107E+01  0.1427407E+03 -0.2506776E+01  0.3728962E+03  0.2380056E+01
  0.1376869E+02  0.1245582E+03  0.2386096E+01  0.1331358E+03 -0.2529856E+01  0.3811972E+03  0.2386045E+01
  0.1396970E+02  0.1267699E+03  0.2391321E+01  0.1226544E+03 -0.2559557E+01  0.3879648E+03  0.2391268E+01
  0.1417071E+02  0.1284594E+03  0.2395906E+01  0.1107190E+03 -0.2601945E+01  0.3931352E+03  0.2395852E+01
  0.1437172E+02  0.1296007E+03  0.2399627E+01  0.9411261E+02 -0.2676625E+01  0.3966274E+03  0.2399572E+01
  0.1457273E+02  0.1301735E+03  0.2402463E+01  0.4327256E+02 -0.2945984E+01  0.3983803E+03  0.2402406E+01
  0.1477374E+02  0.1301595E+03  0.2404433E+01  0.1338755E+03 -0.2274160E+01  0.3983372E+03  0.2404376E+01
  0.1497475E+02  0.1295632E+03  0.2405708E+01  0.1015960E+03 -0.2528452E+01  0.3965117E+03  0.2405647E+01
  0.1517576E+02  0.1283567E+03  0.2405997E+01  0.8671197E+02 -0.2622919E+01  0.3928200E+03  0.2405935E+01
  0.1537677E+02  0.1265336E+03  0.2405261E+01  0.7544364E+02 -0.2701580E+01  0.3872404E+03  0.2405197E+01
  0.1557778E+02  0.1240891E+03  0.2403409E+01  0.6564230E+02 -0.2785708E+01  0.3797594E+03  0.2403342E+01
  0.1577879E+02  0.1210290E+03  0.2400259E+01  0.5683493E+02 -0.2883799E+01  0.3703949E+03  0.2400189E+01
  0.1597980E+02  0.1173797E+03  0.2395790E+01  0.4899541E+02 -0.3003127E+01  0.3592270E+03  0.2395718E+01
  0.1618081E+02  0.1131228E+03  0.2389572E+01  0.4223689E+02  0.3129582E+01  0.3461996E+03  0.2389496E+01
  0.1638182E+02  0.1083054E+03  0.2381262E+01  0.3674440E+02  0.2941631E+01  0.3314570E+03  0.2381183E+01
  0.1658283E+02  0.1028699E+03  0.2369918E+01  0.3292844E+02  0.2713927E+01  0.3148232E+03  0.2369836E+01
  0.1678384E+02  0.9677683E+02  0.2354034E+01  0.3101394E+02  0.2458975E+01  0.2961762E+03  0.2353947E+01
  0.1698485E+02  0.8989692E+02  0.2330135E+01  0.3099854E+02  0.2202915E+01  0.2751219E+03  0.2330043E+01
  0.1718586E+02  0.8184836E+02  0.2289042E+01  0.3257568E+02  0.1973787E+01  0.2504895E+03  0.2288946E+01
  0.1738687E+02  0.6978270E+02  0.2180345E+01  0.3519582E+02  0.1783906E+01  0.2135604E+03  0.2180249E+01
  0.1758788E+02  0.7688752E+02 -0.3012494E+01  0.3839106E+02  0.1631671E+01  0.2353533E+03 -0.3012651E+01
  0.1778889E+02  0.6996428E+02  0.2460119E+01  0.4178147E+02  0.1510621E+01  0.2141362E+03  0.2459985E+01
  0.1798990E+02  0.5982763E+02  0.2363233E+01  0.4507471E+02  0.1413128E+01  0.1831130E+03  0.2363093E+01
  0.1819091E+02  0.5105616E+02  0.2299669E+01  0.4812421E+02  0.1332688E+01  0.1562696E+03  0.2299519E+01
  0.1839192E+02  0.4269362E+02  0.2232618E+01  0.5079268E+02  0.1264863E+01  0.1306788E+03  0.2232455E+01
  0.1859293E+02  0.3467215E+02  0.2145662E+01  0.5303664E+02  0.1205944E+01  0.1061323E+03  0.2145488E+01
  0.1879394E+02  0.2703646E+02  0.2018378E+01  0.5471454E+02  0.1153453E+01  0.8276678E+02  0.2018206E+01
  0.1899495E+02  0.2020362E+02  0.1810104E+01  0.5578381E+02  0.1105299E+01  0.6185833E+02  0.1809979E+01
  0.1919596E+02  0.1502969E+02  0.1445907E+01  0.5630327E+02  0.1059782E+01  0.4602480E+02  0.1445993E+01
  0.1939697E+02  0.1316306E+02  0.8936812E+00  0.5627199E+02  0.1015387E+01  0.4030501E+02  0.8941553E+00
  0.1959798E+02  0.1538750E+02  0.3784666E+00  0.5561427E+02  0.9706480E+00  0.4709920E+02  0.3790461E+00
  0.1979899E+02  0.2001687E+02  0.6195164E-01  0.5428255E+02  0.9231921E+00  0.6125665E+02  0.6241090E-01
  0.2000000E+02  0.2540172E+02 -0.1199412E+00  0.5236415E+02  0.8687633E+00  0.7773019E+02 -0.1195973E+00
