VARIABLES="w (rad/s)"
"abs(F   1   1)" "angle(F   1   1)"
"abs(F   1   2)" "angle(F   1   2)"
"abs(F   1   3)" "angle(F   1   3)"
Zone t="Diffraction force - beta =   0.000 deg",I=   100,F=POINT
  0.1000000E+00  0.4289282E-01 -0.1570646E+01  0.5965497E+03 -0.3134884E-07  0.1312777E+00 -0.1570945E+01
  0.3010101E+00  0.3887041E+00 -0.1570796E+01  0.5958702E+03 -0.2573177E-05  0.1189666E+01 -0.1570782E+01
  0.5020202E+00  0.1079716E+01 -0.1570792E+01  0.5944983E+03 -0.1985982E-04  0.3304575E+01 -0.1570796E+01
  0.7030303E+00  0.2115357E+01 -0.1570797E+01  0.5924308E+03 -0.7609835E-04  0.6474255E+01 -0.1570795E+01
  0.9040404E+00  0.3493695E+01 -0.1570795E+01  0.5896411E+03 -0.2070954E-03  0.1069280E+02 -0.1570796E+01
  0.1105051E+01  0.5209578E+01 -0.1570794E+01  0.5861339E+03 -0.4595662E-03  0.1594440E+02 -0.1570794E+01
  0.1306061E+01  0.7258318E+01 -0.1570791E+01  0.5819027E+03 -0.8902593E-03  0.2221477E+02 -0.1570792E+01
  0.1507071E+01  0.9647220E+01 -0.1570783E+01  0.5769465E+03 -0.1564881E-02  0.2952619E+02 -0.1570784E+01
  0.1708081E+01  0.1234381E+02 -0.1570770E+01  0.5712642E+03 -0.2556628E-02  0.3777935E+02 -0.1570770E+01
  0.1909091E+01  0.1537731E+02 -0.1570746E+01  0.5648882E+03 -0.3945089E-02  0.4706361E+02 -0.1570745E+01
  0.2110101E+01  0.1869656E+02 -0.1570704E+01  0.5578180E+03 -0.5813990E-02  0.5722240E+02 -0.1570704E+01
  0.2311111E+01  0.2234741E+02 -0.1570640E+01  0.5501081E+03 -0.8250679E-02  0.6839600E+02 -0.1570640E+01
  0.2512121E+01  0.2626634E+02 -0.1570543E+01  0.5417740E+03 -0.1134259E-01  0.8039016E+02 -0.1570543E+01
  0.2713131E+01  0.3047089E+02 -0.1570403E+01  0.5328599E+03 -0.1517782E-01  0.9325843E+02 -0.1570403E+01
  0.2914141E+01  0.3497803E+02 -0.1570206E+01  0.5234288E+03 -0.1984239E-01  0.1070526E+03 -0.1570206E+01
  0.3115151E+01  0.3971501E+02 -0.1569935E+01  0.5135304E+03 -0.2541818E-01  0.1215503E+03 -0.1569935E+01
  0.3316161E+01  0.4469029E+02 -0.1569575E+01  0.5031808E+03 -0.3198118E-01  0.1367774E+03 -0.1569575E+01
  0.3517171E+01  0.4993566E+02 -0.1569106E+01  0.4924960E+03 -0.3960824E-01  0.1528308E+03 -0.1569105E+01
  0.3718182E+01  0.5540951E+02 -0.1568506E+01  0.4815179E+03 -0.4836402E-01  0.1695838E+03 -0.1568506E+01
  0.3919192E+01  0.6103814E+02 -0.1567752E+01  0.4702886E+03 -0.5830391E-01  0.1868102E+03 -0.1567752E+01
  0.4120202E+01  0.6684312E+02 -0.1566826E+01  0.4588615E+03 -0.6948162E-01  0.2045763E+03 -0.1566826E+01
  0.4321212E+01  0.7284875E+02 -0.1565706E+01  0.4472927E+03 -0.8194637E-01  0.2229564E+03 -0.1565706E+01
  0.4522222E+01  0.7901170E+02 -0.1564373E+01  0.4356752E+03 -0.9574069E-01  0.2418178E+03 -0.1564373E+01
  0.4723232E+01  0.8527761E+02 -0.1562809E+01  0.4240466E+03 -0.1108913E+00  0.2609946E+03 -0.1562809E+01
  0.4924242E+01  0.9158432E+02 -0.1560999E+01  0.4124104E+03 -0.1274128E+00  0.2802958E+03 -0.1560999E+01
  0.5125252E+01  0.9793692E+02 -0.1558943E+01  0.4008013E+03 -0.1453260E+00  0.2997374E+03 -0.1558943E+01
  0.5326262E+01  0.1043340E+03 -0.1556652E+01  0.3893016E+03 -0.1646672E+00  0.3193151E+03 -0.1556652E+01
  0.5527273E+01  0.1107390E+03 -0.1554139E+01  0.3779449E+03 -0.1854488E+00  0.3389172E+03 -0.1554139E+01
  0.5728283E+01  0.1170909E+03 -0.1551425E+01  0.3667452E+03 -0.2076651E+00  0.3583564E+03 -0.1551426E+01
  0.5929293E+01  0.1233172E+03 -0.1548540E+01  0.3557335E+03 -0.2313121E+00  0.3774115E+03 -0.1548540E+01
  0.6130303E+01  0.1293558E+03 -0.1545529E+01  0.3449185E+03 -0.2563801E+00  0.3958910E+03 -0.1545529E+01
  0.6331313E+01  0.1351749E+03 -0.1542479E+01  0.3343003E+03 -0.2828621E+00  0.4136993E+03 -0.1542479E+01
  0.6532323E+01  0.1407556E+03 -0.1539497E+01  0.3238840E+03 -0.3107629E+00  0.4307781E+03 -0.1539497E+01
  0.6733334E+01  0.1460460E+03 -0.1536693E+01  0.3136976E+03 -0.3400869E+00  0.4469686E+03 -0.1536693E+01
  0.6934343E+01  0.1509899E+03 -0.1534181E+01  0.3037778E+03 -0.3708380E+00  0.4620985E+03 -0.1534181E+01
  0.7135354E+01  0.1555381E+03 -0.1532102E+01  0.2941166E+03 -0.4029877E+00  0.4760161E+03 -0.1532102E+01
  0.7336363E+01  0.1596531E+03 -0.1530630E+01  0.2847174E+03 -0.4365384E+00  0.4886096E+03 -0.1530631E+01
  0.7537374E+01  0.1633060E+03 -0.1529943E+01  0.2755689E+03 -0.4714748E+00  0.4997872E+03 -0.1529943E+01
  0.7738384E+01  0.1664604E+03 -0.1530213E+01  0.2666804E+03 -0.5077929E+00  0.5094411E+03 -0.1530213E+01
  0.7939394E+01  0.1690963E+03 -0.1531617E+01  0.2580680E+03 -0.5454848E+00  0.5175068E+03 -0.1531617E+01
  0.8140405E+01  0.1712077E+03 -0.1534349E+01  0.2497197E+03 -0.5845363E+00  0.5239667E+03 -0.1534349E+01
  0.8341414E+01  0.1727917E+03 -0.1538591E+01  0.2416364E+03 -0.6249436E+00  0.5288130E+03 -0.1538591E+01
  0.8542424E+01  0.1738555E+03 -0.1544508E+01  0.2338046E+03 -0.6667005E+00  0.5320685E+03 -0.1544508E+01
  0.8743435E+01  0.1744150E+03 -0.1552255E+01  0.2262066E+03 -0.7097734E+00  0.5337788E+03 -0.1552256E+01
  0.8944445E+01  0.1744912E+03 -0.1561979E+01  0.2188503E+03 -0.7541682E+00  0.5340101E+03 -0.1561979E+01
  0.9145455E+01  0.1741135E+03 -0.1573802E+01  0.2117424E+03 -0.7999094E+00  0.5328545E+03 -0.1573802E+01
  0.9346465E+01  0.1733164E+03 -0.1587831E+01  0.2048793E+03 -0.8469773E+00  0.5304130E+03 -0.1587831E+01
  0.9547475E+01  0.1721360E+03 -0.1604148E+01  0.1982390E+03 -0.8953419E+00  0.5268000E+03 -0.1604148E+01
  0.9748485E+01  0.1706119E+03 -0.1622825E+01  0.1918245E+03 -0.9450372E+00  0.5221343E+03 -0.1622824E+01
  0.9949495E+01  0.1687818E+03 -0.1643904E+01  0.1856154E+03 -0.9960161E+00  0.5165323E+03 -0.1643904E+01
  0.1015051E+02  0.1666851E+03 -0.1667414E+01  0.1795982E+03 -0.1048260E+01  0.5101144E+03 -0.1667414E+01
  0.1035151E+02  0.1643582E+03 -0.1693374E+01  0.1737784E+03 -0.1101815E+01  0.5029932E+03 -0.1693374E+01
  0.1055252E+02  0.1618401E+03 -0.1721791E+01  0.1681608E+03 -0.1156695E+01  0.4952854E+03 -0.1721791E+01
  0.1075354E+02  0.1591648E+03 -0.1752656E+01  0.1627439E+03 -0.1212887E+01  0.4870970E+03 -0.1752656E+01
  0.1095455E+02  0.1563561E+03 -0.1785937E+01  0.1574917E+03 -0.1270374E+01  0.4785003E+03 -0.1785937E+01
  0.1115556E+02  0.1534491E+03 -0.1821616E+01  0.1524180E+03 -0.1329179E+01  0.4696026E+03 -0.1821616E+01
  0.1135657E+02  0.1504675E+03 -0.1859660E+01  0.1475123E+03 -0.1389322E+01  0.4604774E+03 -0.1859660E+01
  0.1155758E+02  0.1474291E+03 -0.1900018E+01  0.1427454E+03 -0.1450765E+01  0.4511783E+03 -0.1900017E+01
  0.1175859E+02  0.1443556E+03 -0.1942645E+01  0.1381183E+03 -0.1513496E+01  0.4417720E+03 -0.1942644E+01
  0.1195960E+02  0.1412631E+03 -0.1987524E+01  0.1336279E+03 -0.1577626E+01  0.4323076E+03 -0.1987523E+01
  0.1216061E+02  0.1381727E+03 -0.2034603E+01  0.1292770E+03 -0.1643180E+01  0.4228485E+03 -0.2034602E+01
  0.1236162E+02  0.1351006E+03 -0.2083841E+01  0.1250771E+03 -0.1710226E+01  0.4134462E+03 -0.2083840E+01
  0.1256263E+02  0.1320385E+03 -0.2135173E+01  0.1209519E+03 -0.1778680E+01  0.4040749E+03 -0.2135172E+01
  0.1276364E+02  0.1290017E+03 -0.2188558E+01  0.1169058E+03 -0.1848769E+01  0.3947810E+03 -0.2188554E+01
  0.1296465E+02  0.1260117E+03 -0.2243964E+01  0.1129554E+03 -0.1920545E+01  0.3856297E+03 -0.2243963E+01
  0.1316566E+02  0.1230599E+03 -0.2301340E+01  0.1090278E+03 -0.1994229E+01  0.3765948E+03 -0.2301340E+01
  0.1336667E+02  0.1201504E+03 -0.2360632E+01  0.1050727E+03 -0.2069921E+01  0.3676906E+03 -0.2360631E+01
  0.1356768E+02  0.1172874E+03 -0.2421800E+01  0.1010224E+03 -0.2148117E+01  0.3589279E+03 -0.2421801E+01
  0.1376869E+02  0.1144808E+03 -0.2484888E+01  0.9672315E+02 -0.2229986E+01  0.3503398E+03 -0.2484887E+01
  0.1396970E+02  0.1117318E+03 -0.2549827E+01  0.9184499E+02 -0.2317207E+01  0.3419257E+03 -0.2549826E+01
  0.1417071E+02  0.1090578E+03 -0.2616569E+01  0.8572814E+02 -0.2415941E+01  0.3337425E+03 -0.2616569E+01
  0.1437172E+02  0.1064318E+03 -0.2685109E+01  0.7505499E+02 -0.2544491E+01  0.3257055E+03 -0.2685108E+01
  0.1457273E+02  0.1038524E+03 -0.2755443E+01  0.2993775E+02 -0.2856822E+01  0.3178116E+03 -0.2755441E+01
  0.1477374E+02  0.1013237E+03 -0.2827528E+01  0.1301603E+03 -0.2239800E+01  0.3100731E+03 -0.2827525E+01
  0.1497475E+02  0.9887634E+02 -0.2901367E+01  0.1028132E+03 -0.2536758E+01  0.3025818E+03 -0.2901366E+01
  0.1517576E+02  0.9647213E+02 -0.2976957E+01  0.9401645E+02 -0.2666733E+01  0.2952246E+03 -0.2976956E+01
  0.1537677E+02  0.9411176E+02 -0.3054298E+01  0.8886098E+02 -0.2771571E+01  0.2880007E+03 -0.3054298E+01
  0.1557778E+02  0.9179077E+02 -0.3133417E+01  0.8498270E+02 -0.2869107E+01  0.2808972E+03 -0.3133416E+01
  0.1577879E+02  0.8950476E+02  0.3068715E+01  0.8173311E+02 -0.2963367E+01  0.2739011E+03  0.3068714E+01
  0.1597980E+02  0.8727949E+02  0.2985656E+01  0.7888828E+02 -0.3055765E+01  0.2670910E+03  0.2985657E+01
  0.1618081E+02  0.8507639E+02  0.2900446E+01  0.7631742E+02  0.3134945E+01  0.2603482E+03  0.2900447E+01
  0.1638182E+02  0.8292419E+02  0.2812680E+01  0.7388416E+02  0.3042647E+01  0.2537613E+03  0.2812681E+01
  0.1658283E+02  0.8073859E+02  0.2721892E+01  0.7163473E+02  0.2949771E+01  0.2470726E+03  0.2721894E+01
  0.1678384E+02  0.7845047E+02  0.2626817E+01  0.6950334E+02  0.2856247E+01  0.2400690E+03  0.2626818E+01
  0.1698485E+02  0.7589703E+02  0.2524270E+01  0.6745248E+02  0.2761761E+01  0.2322539E+03  0.2524270E+01
  0.1718586E+02  0.7268076E+02  0.2405459E+01  0.6550297E+02  0.2666436E+01  0.2224083E+03  0.2405459E+01
  0.1738687E+02  0.6599165E+02  0.2221047E+01  0.6361605E+02  0.2570278E+01  0.2019302E+03  0.2221049E+01
  0.1758788E+02  0.7655065E+02 -0.3052594E+01  0.6179324E+02  0.2472682E+01  0.2343270E+03 -0.3052591E+01
  0.1778889E+02  0.7699437E+02  0.2354253E+01  0.6004353E+02  0.2373738E+01  0.2356276E+03  0.2354251E+01
  0.1798990E+02  0.7310559E+02  0.2192887E+01  0.5834636E+02  0.2273721E+01  0.2237216E+03  0.2192887E+01
  0.1819091E+02  0.7064230E+02  0.2073010E+01  0.5671219E+02  0.2172050E+01  0.2161812E+03  0.2073010E+01
  0.1839192E+02  0.6862003E+02  0.1963145E+01  0.5513783E+02  0.2069047E+01  0.2099915E+03  0.1963146E+01
  0.1859293E+02  0.6685057E+02  0.1856677E+01  0.5363999E+02  0.1964046E+01  0.2045760E+03  0.1856677E+01
  0.1879394E+02  0.6517065E+02  0.1751319E+01  0.5215735E+02  0.1858179E+01  0.1994345E+03  0.1751320E+01
  0.1899495E+02  0.6360590E+02  0.1646157E+01  0.5067148E+02  0.1751292E+01  0.1946456E+03  0.1646157E+01
  0.1919596E+02  0.6213326E+02  0.1540660E+01  0.4923563E+02  0.1642121E+01  0.1901390E+03  0.1540660E+01
  0.1939697E+02  0.6072728E+02  0.1434567E+01  0.4785281E+02  0.1530228E+01  0.1858361E+03  0.1434567E+01
  0.1959798E+02  0.5935945E+02  0.1327523E+01  0.4645217E+02  0.1415865E+01  0.1816500E+03  0.1327523E+01
  0.1979899E+02  0.5803557E+02  0.1219361E+01  0.4495842E+02  0.1297681E+01  0.1775984E+03  0.1219361E+01
  0.2000000E+02  0.5674971E+02  0.1110298E+01  0.4340576E+02  0.1170932E+01  0.1736631E+03  0.1110298E+01
