VARIABLES="Period (s)" "|Fx| (N/m)" "|Fy| (N/m)" "|Fz| (N/m)" "|Cx| (N)" "|Cy| (N)" "|Cz| (N)" "ang(Fx) (°)" "ang(Fy) (°)" "ang(Fz) (°)" "ang(Cx) (°)" "ang(Cy) (°)" "ang(Cz) (°)"
Zone t="Corps  1"
Zone t="Diffraction force - beta =   0.000 deg",I=   100,F=POINT
 0.1000  0.428928E-01  0.596550E+03  0.131278E+00 -0.864019E-02 -0.900000E+02  0.851042E-02
 0.3010  0.388704E+00  0.595870E+03  0.118967E+01 -0.204906E-04 -0.899999E+02 -0.846943E-03
 0.5020  0.107972E+01  0.594498E+03  0.330457E+01 -0.225396E-03 -0.899989E+02 -0.204906E-04
 0.7030  0.211536E+01  0.592431E+03  0.647425E+01  0.204906E-04 -0.899956E+02 -0.102453E-03
 0.9040  0.349370E+01  0.589641E+03  0.106928E+02 -0.546415E-04 -0.899881E+02 -0.136604E-04
 1.1051  0.520958E+01  0.586134E+03  0.159444E+02 -0.129774E-03 -0.899737E+02 -0.129774E-03
 1.3061  0.725832E+01  0.581903E+03  0.222148E+02 -0.321019E-03 -0.899490E+02 -0.232226E-03
 1.5071  0.964722E+01  0.576947E+03  0.295262E+02 -0.785472E-03 -0.899103E+02 -0.703509E-03
 1.7081  0.123438E+02  0.571264E+03  0.377794E+02 -0.150264E-02 -0.898535E+02 -0.150264E-02
 1.9091  0.153773E+02  0.564888E+03  0.470636E+02 -0.289600E-02 -0.897740E+02 -0.293698E-02
 2.1101  0.186966E+02  0.557818E+03  0.572224E+02 -0.527291E-02 -0.896669E+02 -0.527291E-02
 2.3111  0.223474E+02  0.550108E+03  0.683960E+02 -0.895438E-02 -0.895273E+02 -0.895438E-02
 2.5121  0.262663E+02  0.541774E+03  0.803902E+02 -0.145005E-01 -0.893501E+02 -0.145005E-01
 2.7131  0.304709E+02  0.532860E+03  0.932584E+02 -0.225260E-01 -0.891304E+02 -0.225328E-01
 2.9141  0.349780E+02  0.523429E+03  0.107053E+03 -0.338436E-01 -0.888631E+02 -0.338436E-01
 3.1152  0.397150E+02  0.513530E+03  0.121550E+03 -0.493276E-01 -0.885436E+02 -0.493345E-01
 3.3162  0.446903E+02  0.503181E+03  0.136777E+03 -0.699889E-01 -0.881676E+02 -0.699889E-01
 3.5172  0.499357E+02  0.492496E+03  0.152831E+03 -0.968794E-01 -0.877306E+02 -0.968862E-01
 3.7182  0.554095E+02  0.481518E+03  0.169584E+03 -0.131256E+00 -0.872289E+02 -0.131256E+00
 3.9192  0.610381E+02  0.470289E+03  0.186810E+03 -0.174409E+00 -0.866594E+02 -0.174409E+00
 4.1202  0.668431E+02  0.458862E+03  0.204576E+03 -0.227500E+00 -0.860190E+02 -0.227500E+00
 4.3212  0.728488E+02  0.447293E+03  0.222956E+03 -0.291663E+00 -0.853048E+02 -0.291663E+00
 4.5222  0.790117E+02  0.435675E+03  0.241818E+03 -0.368031E+00 -0.845145E+02 -0.368031E+00
 4.7232  0.852776E+02  0.424047E+03  0.260995E+03 -0.457629E+00 -0.836464E+02 -0.457629E+00
 4.9242  0.915843E+02  0.412410E+03  0.280296E+03 -0.561366E+00 -0.826998E+02 -0.561360E+00
 5.1253  0.979369E+02  0.400801E+03  0.299737E+03 -0.679139E+00 -0.816734E+02 -0.679139E+00
 5.3263  0.104334E+03  0.389302E+03  0.319315E+03 -0.810402E+00 -0.805653E+02 -0.810402E+00
 5.5273  0.110739E+03  0.377945E+03  0.338917E+03 -0.954382E+00 -0.793746E+02 -0.954382E+00
 5.7283  0.117091E+03  0.366745E+03  0.358356E+03 -0.110987E+01 -0.781017E+02 -0.110986E+01
 5.9293  0.123317E+03  0.355733E+03  0.377412E+03 -0.127518E+01 -0.767468E+02 -0.127518E+01
 6.1303  0.129356E+03  0.344919E+03  0.395891E+03 -0.144769E+01 -0.753105E+02 -0.144770E+01
 6.3313  0.135175E+03  0.334300E+03  0.413699E+03 -0.162248E+01 -0.737932E+02 -0.162248E+01
 6.5323  0.140756E+03  0.323884E+03  0.430778E+03 -0.179329E+01 -0.721946E+02 -0.179331E+01
 6.7333  0.146046E+03  0.313698E+03  0.446969E+03 -0.195400E+01 -0.705145E+02 -0.195400E+01
 6.9343  0.150990E+03  0.303778E+03  0.462099E+03 -0.209788E+01 -0.687525E+02 -0.209788E+01
 7.1354  0.155538E+03  0.294117E+03  0.476016E+03 -0.221701E+01 -0.669105E+02 -0.221700E+01
 7.3364  0.159653E+03  0.284717E+03  0.488610E+03 -0.230134E+01 -0.649882E+02 -0.230133E+01
 7.5374  0.163306E+03  0.275569E+03  0.499787E+03 -0.234071E+01 -0.629865E+02 -0.234071E+01
 7.7384  0.166460E+03  0.266680E+03  0.509441E+03 -0.232525E+01 -0.609056E+02 -0.232525E+01
 7.9394  0.169096E+03  0.258068E+03  0.517507E+03 -0.224479E+01 -0.587460E+02 -0.224480E+01
 8.1404  0.171208E+03  0.249720E+03  0.523967E+03 -0.208827E+01 -0.565085E+02 -0.208827E+01
 8.3414  0.172792E+03  0.241636E+03  0.528813E+03 -0.184524E+01 -0.541934E+02 -0.184524E+01
 8.5424  0.173855E+03  0.233805E+03  0.532069E+03 -0.150621E+01 -0.518009E+02 -0.150621E+01
 8.7434  0.174415E+03  0.226207E+03  0.533779E+03 -0.106232E+01 -0.493330E+02 -0.106231E+01
 8.9444  0.174491E+03  0.218850E+03  0.534010E+03 -0.505215E+00 -0.467893E+02 -0.505215E+00
 9.1455  0.174113E+03  0.211742E+03  0.532854E+03  0.172223E+00 -0.441686E+02  0.172223E+00
 9.3465  0.173316E+03  0.204879E+03  0.530413E+03  0.975993E+00 -0.414718E+02  0.975993E+00
 9.5475  0.172136E+03  0.198239E+03  0.526800E+03  0.191090E+01 -0.387007E+02  0.191089E+01
 9.7485  0.170612E+03  0.191825E+03  0.522134E+03  0.298099E+01 -0.358534E+02  0.298099E+01
 9.9495  0.168782E+03  0.185615E+03  0.516532E+03  0.418874E+01 -0.329325E+02  0.418874E+01
10.1505  0.166685E+03  0.179598E+03  0.510114E+03  0.553577E+01 -0.299391E+02  0.553577E+01
10.3515  0.164358E+03  0.173778E+03  0.502993E+03  0.702320E+01 -0.268707E+02  0.702319E+01
10.5525  0.161840E+03  0.168161E+03  0.495285E+03  0.865135E+01 -0.237263E+02  0.865134E+01
10.7535  0.159165E+03  0.162744E+03  0.487097E+03  0.104198E+02 -0.205067E+02  0.104198E+02
10.9545  0.156356E+03  0.157492E+03  0.478500E+03  0.123267E+02 -0.172129E+02  0.123266E+02
11.1556  0.153449E+03  0.152418E+03  0.469603E+03  0.143709E+02 -0.138437E+02  0.143709E+02
11.3566  0.150467E+03  0.147512E+03  0.460477E+03  0.165506E+02 -0.103977E+02  0.165507E+02
11.5576  0.147429E+03  0.142745E+03  0.451178E+03  0.188630E+02 -0.687731E+01  0.188630E+02
11.7586  0.144356E+03  0.138118E+03  0.441772E+03  0.213054E+02 -0.328309E+01  0.213053E+02
11.9596  0.141263E+03  0.133628E+03  0.432308E+03  0.238767E+02  0.391295E+00  0.238767E+02
12.1606  0.138173E+03  0.129277E+03  0.422849E+03  0.265741E+02  0.414726E+01  0.265741E+02
12.3616  0.135101E+03  0.125077E+03  0.413446E+03  0.293953E+02  0.798873E+01  0.293952E+02
12.5626  0.132039E+03  0.120952E+03  0.404075E+03  0.323364E+02  0.119109E+02  0.323363E+02
12.7636  0.129002E+03  0.116906E+03  0.394781E+03  0.353951E+02  0.159267E+02  0.353949E+02
12.9647  0.126012E+03  0.112955E+03  0.385630E+03  0.385697E+02  0.200391E+02  0.385696E+02
13.1657  0.123060E+03  0.109028E+03  0.376595E+03  0.418571E+02  0.242609E+02  0.418571E+02
13.3667  0.120150E+03  0.105073E+03  0.367691E+03  0.452542E+02  0.285977E+02  0.452542E+02
13.5677  0.117287E+03  0.101022E+03  0.358928E+03  0.487589E+02  0.330780E+02  0.487590E+02
13.7687  0.114481E+03  0.967232E+02  0.350340E+03  0.523736E+02  0.377688E+02  0.523735E+02
13.9697  0.111732E+03  0.918450E+02  0.341926E+03  0.560943E+02  0.427662E+02  0.560943E+02
14.1707  0.109058E+03  0.857281E+02  0.333743E+03  0.599184E+02  0.484232E+02  0.599183E+02
14.3717  0.106432E+03  0.750550E+02  0.325705E+03  0.638454E+02  0.557886E+02  0.638453E+02
14.5727  0.103852E+03  0.299377E+02  0.317812E+03  0.678752E+02  0.736839E+02  0.678751E+02
14.7737  0.101324E+03  0.130160E+03  0.310073E+03  0.720054E+02  0.383311E+02  0.720053E+02
14.9747  0.988763E+02  0.102813E+03  0.302582E+03  0.762361E+02  0.553455E+02  0.762360E+02
15.1758  0.964721E+02  0.940164E+02  0.295225E+03  0.805670E+02  0.627925E+02  0.805670E+02
15.3768  0.941118E+02  0.888610E+02  0.288001E+03  0.849984E+02  0.687993E+02  0.849984E+02
15.5778  0.917908E+02  0.849827E+02  0.280897E+03  0.895316E+02  0.743877E+02  0.895315E+02
15.7788  0.895048E+02  0.817331E+02  0.273901E+03 -0.265824E+03  0.797884E+02 -0.265824E+03
15.9798  0.872795E+02  0.788883E+02  0.267091E+03 -0.261065E+03  0.850824E+02 -0.261066E+03
16.1808  0.850764E+02  0.763174E+02  0.260348E+03 -0.256183E+03 -0.269619E+03 -0.256183E+03
16.3818  0.829242E+02  0.738842E+02  0.253761E+03 -0.251155E+03 -0.264331E+03 -0.251155E+03
16.5828  0.807386E+02  0.716347E+02  0.247073E+03 -0.245953E+03 -0.259009E+03 -0.245953E+03
16.7838  0.784505E+02  0.695033E+02  0.240069E+03 -0.240506E+03 -0.253651E+03 -0.240506E+03
16.9848  0.758970E+02  0.674525E+02  0.232254E+03 -0.234630E+03 -0.248237E+03 -0.234630E+03
17.1859  0.726808E+02  0.655030E+02  0.222408E+03 -0.227823E+03 -0.242776E+03 -0.227823E+03
17.3869  0.659917E+02  0.636161E+02  0.201930E+03 -0.217257E+03 -0.237266E+03 -0.217257E+03
17.5879  0.765507E+02  0.617932E+02  0.234327E+03  0.849008E+02 -0.231674E+03  0.849006E+02
17.7889  0.769944E+02  0.600435E+02  0.235628E+03 -0.224889E+03 -0.226005E+03 -0.224889E+03
17.9899  0.731056E+02  0.583464E+02  0.223722E+03 -0.215643E+03 -0.220275E+03 -0.215643E+03
18.1909  0.706423E+02  0.567122E+02  0.216181E+03 -0.208775E+03 -0.214449E+03 -0.208775E+03
18.3919  0.686200E+02  0.551378E+02  0.209991E+03 -0.202480E+03 -0.208548E+03 -0.202480E+03
18.5929  0.668506E+02  0.536400E+02  0.204576E+03 -0.196380E+03 -0.202532E+03 -0.196380E+03
18.7939  0.651706E+02  0.521574E+02  0.199434E+03 -0.190343E+03 -0.196466E+03 -0.190343E+03
18.9949  0.636059E+02  0.506715E+02  0.194646E+03 -0.184318E+03 -0.190342E+03 -0.184318E+03
19.1960  0.621333E+02  0.492356E+02  0.190139E+03 -0.178273E+03 -0.184087E+03 -0.178273E+03
19.3970  0.607273E+02  0.478528E+02  0.185836E+03 -0.172195E+03 -0.177676E+03 -0.172195E+03
19.5980  0.593595E+02  0.464522E+02  0.181650E+03 -0.166061E+03 -0.171123E+03 -0.166061E+03
19.7990  0.580356E+02  0.449584E+02  0.177598E+03 -0.159864E+03 -0.164352E+03 -0.159864E+03
20.0000  0.567497E+02  0.434058E+02  0.173663E+03 -0.153615E+03 -0.157089E+03 -0.153615E+03
