VARIABLES="w (rad/s)"
"abs(F   1   1)" "angle(F   1   1)"
"abs(F   1   2)" "angle(F   1   2)"
"abs(F   1   3)" "angle(F   1   3)"
Zone t="FKforce - beta =   0.000",I=   100,F=POINT
  0.1000000E+00  0.3101545E-01 -0.1570588E+01  0.5966028E+03  0.3048912E-12  0.9492555E-01 -0.1571002E+01
  0.3010101E+00  0.2809490E+00 -0.1570796E+01  0.5963524E+03  0.1366486E-11  0.8598688E+00 -0.1570776E+01
  0.5020202E+00  0.7810548E+00 -0.1570791E+01  0.5958493E+03 -0.1377409E-10  0.2390486E+01 -0.1570796E+01
  0.7030303E+00  0.1530547E+01 -0.1570797E+01  0.5950988E+03 -0.4773214E-10  0.4684374E+01 -0.1570794E+01
  0.9040404E+00  0.2528246E+01 -0.1570796E+01  0.5940938E+03  0.5721870E-10  0.7737922E+01 -0.1570797E+01
  0.1105051E+01  0.3772570E+01 -0.1570796E+01  0.5928375E+03  0.1178218E-10  0.1154626E+02 -0.1570796E+01
  0.1306061E+01  0.5261527E+01 -0.1570796E+01  0.5913287E+03  0.9292300E-10  0.1610335E+02 -0.1570798E+01
  0.1507071E+01  0.6992716E+01 -0.1570795E+01  0.5895646E+03 -0.1366422E-09  0.2140178E+02 -0.1570797E+01
  0.1708081E+01  0.8963318E+01 -0.1570797E+01  0.5875446E+03  0.2060643E-09  0.2743298E+02 -0.1570797E+01
  0.1909091E+01  0.1117007E+02 -0.1570797E+01  0.5852682E+03 -0.2211872E-09  0.3418690E+02 -0.1570796E+01
  0.2110101E+01  0.1360925E+02 -0.1570796E+01  0.5827332E+03  0.1710071E-09  0.4165216E+02 -0.1570796E+01
  0.2311111E+01  0.1627676E+02 -0.1570796E+01  0.5799386E+03 -0.4046865E-09  0.4981616E+02 -0.1570796E+01
  0.2512121E+01  0.1916790E+02 -0.1570796E+01  0.5768823E+03  0.4552627E-09  0.5866468E+02 -0.1570796E+01
  0.2713131E+01  0.2227763E+02 -0.1570796E+01  0.5735630E+03  0.5845498E-10  0.6818218E+02 -0.1570796E+01
  0.2914141E+01  0.2560028E+02 -0.1570796E+01  0.5699788E+03  0.3692750E-09  0.7835124E+02 -0.1570796E+01
  0.3115151E+01  0.2912980E+02 -0.1570796E+01  0.5661264E+03 -0.3948189E-10  0.8915344E+02 -0.1570796E+01
  0.3316161E+01  0.3285949E+02 -0.1570796E+01  0.5620059E+03 -0.1186512E-08  0.1005683E+03 -0.1570796E+01
  0.3517171E+01  0.3678222E+02 -0.1570796E+01  0.5576157E+03 -0.1149089E-08  0.1125738E+03 -0.1570796E+01
  0.3718182E+01  0.4089011E+02 -0.1570796E+01  0.5529515E+03  0.8354005E-09  0.1251463E+03 -0.1570796E+01
  0.3919192E+01  0.4517498E+02 -0.1570796E+01  0.5480137E+03 -0.1019671E-09  0.1382601E+03 -0.1570796E+01
  0.4120202E+01  0.4962786E+02 -0.1570796E+01  0.5428007E+03 -0.1551059E-08  0.1518881E+03 -0.1570796E+01
  0.4321212E+01  0.5423916E+02 -0.1570796E+01  0.5373088E+03 -0.6933239E-11  0.1660011E+03 -0.1570796E+01
  0.4522222E+01  0.5899888E+02 -0.1570796E+01  0.5315386E+03  0.1794177E-08  0.1805680E+03 -0.1570796E+01
  0.4723232E+01  0.6389597E+02 -0.1570796E+01  0.5254883E+03  0.5671358E-09  0.1955556E+03 -0.1570796E+01
  0.4924242E+01  0.6891929E+02 -0.1570796E+01  0.5191563E+03 -0.4161884E-09  0.2109291E+03 -0.1570796E+01
  0.5125252E+01  0.7405653E+02 -0.1570796E+01  0.5125421E+03  0.3779497E-09  0.2266514E+03 -0.1570796E+01
  0.5326262E+01  0.7929502E+02 -0.1570796E+01  0.5056458E+03 -0.1665031E-08  0.2426834E+03 -0.1570796E+01
  0.5527273E+01  0.8462137E+02 -0.1570796E+01  0.4984669E+03  0.5978797E-09  0.2589846E+03 -0.1570796E+01
  0.5728283E+01  0.9002142E+02 -0.1570796E+01  0.4910052E+03 -0.2169902E-08  0.2755110E+03 -0.1570796E+01
  0.5929293E+01  0.9548022E+02 -0.1570796E+01  0.4832608E+03 -0.1495479E-08  0.2922174E+03 -0.1570796E+01
  0.6130303E+01  0.1009827E+03 -0.1570796E+01  0.4752362E+03  0.2978751E-09  0.3090567E+03 -0.1570796E+01
  0.6331313E+01  0.1065123E+03 -0.1570796E+01  0.4669320E+03  0.9573875E-10  0.3259793E+03 -0.1570796E+01
  0.6532323E+01  0.1120523E+03 -0.1570796E+01  0.4583502E+03 -0.7152294E-09  0.3429338E+03 -0.1570796E+01
  0.6733334E+01  0.1175854E+03 -0.1570796E+01  0.4494928E+03 -0.2801264E-08  0.3598676E+03 -0.1570796E+01
  0.6934343E+01  0.1230934E+03 -0.1570796E+01  0.4403648E+03 -0.1218176E-08  0.3767243E+03 -0.1570796E+01
  0.7135354E+01  0.1285578E+03 -0.1570796E+01  0.4309688E+03  0.4840635E-09  0.3934465E+03 -0.1570796E+01
  0.7336363E+01  0.1339590E+03 -0.1570796E+01  0.4213106E+03 -0.9018989E-09  0.4099767E+03 -0.1570796E+01
  0.7537374E+01  0.1392778E+03 -0.1570796E+01  0.4113940E+03 -0.1503177E-08  0.4262531E+03 -0.1570796E+01
  0.7738384E+01  0.1444930E+03 -0.1570796E+01  0.4012262E+03  0.2729721E-08  0.4422145E+03 -0.1570796E+01
  0.7939394E+01  0.1495849E+03 -0.1570796E+01  0.3908142E+03  0.1715783E-09  0.4577971E+03 -0.1570796E+01
  0.8140405E+01  0.1545319E+03 -0.1570796E+01  0.3801658E+03 -0.8975994E-08  0.4729358E+03 -0.1570796E+01
  0.8341414E+01  0.1593121E+03 -0.1570796E+01  0.3692893E+03  0.1573686E-08  0.4875646E+03 -0.1570796E+01
  0.8542424E+01  0.1639042E+03 -0.1570796E+01  0.3581954E+03  0.4160065E-10  0.5016187E+03 -0.1570796E+01
  0.8743435E+01  0.1682868E+03 -0.1570796E+01  0.3468941E+03 -0.1022351E-07  0.5150298E+03 -0.1570796E+01
  0.8944445E+01  0.1724370E+03 -0.1570796E+01  0.3353983E+03 -0.6664239E-09  0.5277297E+03 -0.1570796E+01
  0.9145455E+01  0.1763331E+03 -0.1570796E+01  0.3237194E+03 -0.9068128E-08  0.5396542E+03 -0.1570796E+01
  0.9346465E+01  0.1799535E+03 -0.1570796E+01  0.3118727E+03 -0.8600333E-08  0.5507325E+03 -0.1570796E+01
  0.9547475E+01  0.1832760E+03 -0.1570796E+01  0.2998714E+03 -0.2981510E-09  0.5609005E+03 -0.1570796E+01
  0.9748485E+01  0.1862798E+03 -0.1570796E+01  0.2877334E+03  0.5178808E-10  0.5700926E+03 -0.1570796E+01
  0.9949495E+01  0.1889434E+03 -0.1570796E+01  0.2754749E+03 -0.1276586E-07  0.5782435E+03 -0.1570796E+01
  0.1015051E+02  0.1912467E+03 -0.1570796E+01  0.2631147E+03 -0.1302575E-08  0.5852917E+03 -0.1570796E+01
  0.1035151E+02  0.1931696E+03 -0.1570796E+01  0.2506713E+03  0.6122836E-08  0.5911771E+03 -0.1570796E+01
  0.1055252E+02  0.1946940E+03 -0.1570796E+01  0.2381664E+03 -0.1651747E-07  0.5958414E+03 -0.1570796E+01
  0.1075354E+02  0.1958022E+03 -0.1570796E+01  0.2256209E+03 -0.3104121E-08  0.5992320E+03 -0.1570796E+01
  0.1095455E+02  0.1964768E+03 -0.1570796E+01  0.2130569E+03 -0.1328856E-08  0.6012963E+03 -0.1570796E+01
  0.1115556E+02  0.1967029E+03 -0.1570796E+01  0.2004982E+03 -0.1189131E-08  0.6019875E+03 -0.1570796E+01
  0.1135657E+02  0.1964667E+03 -0.1570796E+01  0.1879694E+03 -0.6579775E-08  0.6012645E+03 -0.1570796E+01
  0.1155758E+02  0.1957561E+03 -0.1570796E+01  0.1754960E+03  0.1969885E-07  0.5990897E+03 -0.1570796E+01
  0.1175859E+02  0.1945606E+03 -0.1570796E+01  0.1631035E+03 -0.1187682E-08  0.5954317E+03 -0.1570796E+01
  0.1195960E+02  0.1928720E+03 -0.1570796E+01  0.1508188E+03 -0.3823627E-07  0.5902641E+03 -0.1570796E+01
  0.1216061E+02  0.1906844E+03 -0.1570796E+01  0.1386699E+03 -0.1719325E-08  0.5835685E+03 -0.1570796E+01
  0.1236162E+02  0.1879933E+03 -0.1570796E+01  0.1266841E+03 -0.3881611E-08  0.5753333E+03 -0.1570796E+01
  0.1256263E+02  0.1847976E+03 -0.1570796E+01  0.1148899E+03 -0.3242487E-07  0.5655534E+03 -0.1570796E+01
  0.1276364E+02  0.1810985E+03 -0.1570796E+01  0.1033160E+03 -0.4139371E-07  0.5542338E+03 -0.1570796E+01
  0.1296465E+02  0.1769005E+03 -0.1570796E+01  0.9199098E+02  0.3466479E-07  0.5413859E+03 -0.1570796E+01
  0.1316566E+02  0.1722096E+03 -0.1570796E+01  0.8094373E+02 -0.1859338E-07  0.5270298E+03 -0.1570796E+01
  0.1336667E+02  0.1670358E+03 -0.1570796E+01  0.7020264E+02 -0.1138771E-06  0.5111978E+03 -0.1570796E+01
  0.1356768E+02  0.1613925E+03 -0.1570796E+01  0.5979592E+02 -0.6516588E-07  0.4939266E+03 -0.1570796E+01
  0.1376869E+02  0.1552950E+03 -0.1570796E+01  0.4975123E+02  0.2186448E-07  0.4752686E+03 -0.1570796E+01
  0.1396970E+02  0.1487635E+03 -0.1570796E+01  0.4009533E+02 -0.4515467E-07  0.4552797E+03 -0.1570796E+01
  0.1417071E+02  0.1418201E+03 -0.1570796E+01  0.3085429E+02 -0.7968719E-07  0.4340316E+03 -0.1570796E+01
  0.1437172E+02  0.1344907E+03 -0.1570796E+01  0.2205313E+02  0.1621665E-07  0.4116019E+03 -0.1570796E+01
  0.1457273E+02  0.1268041E+03 -0.1570796E+01  0.1371529E+02  0.1901312E-07  0.3880799E+03 -0.1570796E+01
  0.1477374E+02  0.1187933E+03 -0.1570796E+01  0.5862843E+01 -0.6481149E-07  0.3635650E+03 -0.1570796E+01
  0.1497475E+02  0.1104932E+03 -0.1570796E+01  0.1484002E+01  0.3141592E+01  0.3381649E+03 -0.1570796E+01
  0.1517576E+02  0.1019422E+03 -0.1570796E+01  0.8306789E+01 -0.3141593E+01  0.3119971E+03 -0.1570796E+01
  0.1537677E+02  0.9318172E+02 -0.1570796E+01  0.1458947E+02  0.3141593E+01  0.2851882E+03 -0.1570796E+01
  0.1557778E+02  0.8425561E+02 -0.1570796E+01  0.2031819E+02 -0.3141593E+01  0.2578729E+03 -0.1570796E+01
  0.1577879E+02  0.7521036E+02 -0.1570796E+01  0.2548164E+02 -0.3141593E+01  0.2301927E+03 -0.1570796E+01
  0.1597980E+02  0.6609438E+02 -0.1570796E+01  0.3007142E+02 -0.3141593E+01  0.2022962E+03 -0.1570796E+01
  0.1618081E+02  0.5695837E+02 -0.1570796E+01  0.3408189E+02 -0.3141593E+01  0.1743384E+03 -0.1570796E+01
  0.1638182E+02  0.4785416E+02 -0.1570796E+01  0.3751054E+02 -0.3141593E+01  0.1464780E+03 -0.1570796E+01
  0.1658283E+02  0.3883501E+02 -0.1570796E+01  0.4035806E+02  0.3141593E+01  0.1188777E+03 -0.1570796E+01
  0.1678384E+02  0.2995497E+02 -0.1570796E+01  0.4262847E+02 -0.3141593E+01  0.9170305E+02 -0.1570796E+01
  0.1698485E+02  0.2126816E+02 -0.1570796E+01  0.4432930E+02 -0.3141593E+01  0.6511983E+02 -0.1570796E+01
  0.1718586E+02  0.1282876E+02 -0.1570796E+01  0.4547139E+02 -0.3141593E+01  0.3929371E+02 -0.1570796E+01
  0.1738687E+02  0.4690414E+01 -0.1570796E+01  0.4606932E+02 -0.3141593E+01  0.1438883E+02 -0.1570797E+01
  0.1758788E+02  0.3094641E+01  0.1570797E+01  0.4614105E+02 -0.3141593E+01  0.9434948E+01  0.1570797E+01
  0.1778889E+02  0.1047569E+02  0.1570796E+01  0.4570815E+02 -0.3141593E+01  0.3202254E+02  0.1570796E+01
  0.1798990E+02  0.1740441E+02  0.1570796E+01  0.4479557E+02 -0.3141593E+01  0.5322588E+02  0.1570796E+01
  0.1819091E+02  0.2383523E+02  0.1570796E+01  0.4343156E+02  0.3141593E+01  0.7290578E+02  0.1570796E+01
  0.1839192E+02  0.2972594E+02  0.1570796E+01  0.4164769E+02  0.3141593E+01  0.9093269E+02  0.1570796E+01
  0.1859293E+02  0.3503823E+02  0.1570796E+01  0.3947852E+02  0.3141593E+01  0.1071898E+03  0.1570796E+01
  0.1879394E+02  0.3973835E+02  0.1570796E+01  0.3696128E+02  0.3141593E+01  0.1215735E+03  0.1570796E+01
  0.1899495E+02  0.4379751E+02  0.1570796E+01  0.3413592E+02  0.3141593E+01  0.1339958E+03  0.1570796E+01
  0.1919596E+02  0.4719242E+02  0.1570796E+01  0.3104453E+02  0.3141593E+01  0.1443858E+03  0.1570796E+01
  0.1939697E+02  0.4990557E+02  0.1570796E+01  0.2773097E+02  0.3141593E+01  0.1526893E+03  0.1570796E+01
  0.1959798E+02  0.5192597E+02  0.1570796E+01  0.2424085E+02  0.3141593E+01  0.1588729E+03  0.1570796E+01
  0.1979899E+02  0.5324913E+02  0.1570796E+01  0.2062068E+02 -0.3141593E+01  0.1629229E+03  0.1570796E+01
  0.2000000E+02  0.5387758E+02  0.1570796E+01  0.1691769E+02  0.3141593E+01  0.1648470E+03  0.1570796E+01
