 VARIABLES="Time (s)"
"AddedMass    1" "IRF    1"
"AddedMass    2" "IRF    2"
"AddedMass    3" "IRF    3"
Zone t="DoF    1",I=   800,F=POINT
  0.0000000E+00  0.7891314E+00  0.6375347E+02 -0.5700712E-07 -0.7337453E-05  0.2415348E+01  0.1951036E+03
  0.1000000E-01  0.7891314E+00  0.6310685E+02 -0.5700712E-07 -0.7277875E-05  0.2415348E+01  0.1931248E+03
  0.2000000E-01  0.7891314E+00  0.6118319E+02 -0.5700712E-07 -0.7100858E-05  0.2415348E+01  0.1872378E+03
  0.3000000E-01  0.7891314E+00  0.5803032E+02 -0.5700712E-07 -0.6811494E-05  0.2415348E+01  0.1775893E+03
  0.4000000E-01  0.7891314E+00  0.5372663E+02 -0.5700712E-07 -0.6418094E-05  0.2415348E+01  0.1644189E+03
  0.5000000E-01  0.7891314E+00  0.4837867E+02 -0.5700712E-07 -0.5931919E-05  0.2415348E+01  0.1480528E+03
  0.6000000E-01  0.7891314E+00  0.4211822E+02 -0.5700712E-07 -0.5366835E-05  0.2415348E+01  0.1288942E+03
  0.7000000E-01  0.7891314E+00  0.3509857E+02 -0.5700712E-07 -0.4738870E-05  0.2415348E+01  0.1074122E+03
  0.8000000E-01  0.7891314E+00  0.2749025E+02 -0.5700712E-07 -0.4065715E-05  0.2415348E+01  0.8412878E+02
  0.9000000E-01  0.7891314E+00  0.1947625E+02 -0.5700712E-07 -0.3366160E-05  0.2415348E+01  0.5960384E+02
  0.9999999E-01  0.7891314E+00  0.1124700E+02 -0.5700712E-07 -0.2659520E-05  0.2415348E+01  0.3442017E+02
  0.1100000E+00  0.7891314E+00  0.2995151E+01 -0.5700712E-07 -0.1965009E-05  0.2415348E+01  0.9167322E+01
  0.1200000E+00  0.7891314E+00 -0.5089651E+01 -0.5700712E-07 -0.1301167E-05  0.2415348E+01 -0.1557430E+02
  0.1300000E+00  0.7891314E+00 -0.1282581E+02 -0.5700712E-07 -0.6852496E-06  0.2415348E+01 -0.3924905E+02
  0.1400000E+00  0.7891314E+00 -0.2004459E+02 -0.5700712E-07 -0.1327169E-06  0.2415348E+01 -0.6134047E+02
  0.1500000E+00  0.7891314E+00 -0.2659436E+02 -0.5700712E-07  0.3432484E-06  0.2415348E+01 -0.8138458E+02
  0.1600000E+00  0.7891314E+00 -0.3234446E+02 -0.5700712E-07  0.7321505E-06  0.2415348E+01 -0.9898153E+02
  0.1700000E+00  0.7891314E+00 -0.3718821E+02 -0.5700712E-07  0.1026494E-05  0.2415348E+01 -0.1138048E+03
  0.1800000E+00  0.7891314E+00 -0.4104530E+02 -0.5700712E-07  0.1222002E-05  0.2415348E+01 -0.1256087E+03
  0.1900000E+00  0.7891314E+00 -0.4386333E+02 -0.5700712E-07  0.1317736E-05  0.2415348E+01 -0.1342327E+03
  0.2000000E+00  0.7891314E+00 -0.4561845E+02 -0.5700712E-07  0.1316097E-05  0.2415348E+01 -0.1396041E+03
  0.2100000E+00  0.7891314E+00 -0.4631535E+02 -0.5700712E-07  0.1222736E-05  0.2415348E+01 -0.1417370E+03
  0.2200000E+00  0.7891314E+00 -0.4598613E+02 -0.5700712E-07  0.1046336E-05  0.2415348E+01 -0.1407297E+03
  0.2300000E+00  0.7891314E+00 -0.4468865E+02 -0.5700712E-07  0.7983297E-06  0.2415348E+01 -0.1367593E+03
  0.2400000E+00  0.7891314E+00 -0.4250403E+02 -0.5700712E-07  0.4924843E-06  0.2415348E+01 -0.1300741E+03
  0.2500000E+00  0.7891314E+00 -0.3953356E+02 -0.5700712E-07  0.1444574E-06  0.2415348E+01 -0.1209839E+03
  0.2600000E+00  0.7891314E+00 -0.3589515E+02 -0.5700712E-07 -0.2287398E-06  0.2415348E+01 -0.1098496E+03
  0.2700000E+00  0.7891314E+00 -0.3171929E+02 -0.5700712E-07 -0.6093179E-06  0.2415348E+01 -0.9707054E+02
  0.2800000E+00  0.7891314E+00 -0.2714480E+02 -0.5700712E-07 -0.9793013E-06  0.2415348E+01 -0.8307165E+02
  0.2900000E+00  0.7891314E+00 -0.2231461E+02 -0.5700712E-07 -0.1321123E-05  0.2415348E+01 -0.6829015E+02
  0.3000000E+00  0.7891314E+00 -0.1737119E+02 -0.5700712E-07 -0.1618230E-05  0.2415348E+01 -0.5316224E+02
  0.3100000E+00  0.7891314E+00 -0.1245260E+02 -0.5700712E-07 -0.1855635E-05  0.2415348E+01 -0.3811021E+02
  0.3200000E+00  0.7891314E+00 -0.7688422E+01 -0.5700712E-07 -0.2020419E-05  0.2415348E+01 -0.2353069E+02
  0.3300000E+00  0.7891314E+00 -0.3196332E+01 -0.5700712E-07 -0.2102173E-05  0.2415348E+01 -0.9783802E+01
  0.3400000E+00  0.7891314E+00  0.9209571E+00 -0.5700712E-07 -0.2093365E-05  0.2415348E+01  0.2816102E+01
  0.3500000E+00  0.7891314E+00  0.4578054E+01 -0.5700712E-07 -0.1989600E-05  0.2415348E+01  0.1400774E+02
  0.3600000E+00  0.7891314E+00  0.7708767E+01 -0.5700712E-07 -0.1789784E-05  0.2415348E+01  0.2358850E+02
  0.3700000E+00  0.7891314E+00  0.1026718E+02 -0.5700712E-07 -0.1496187E-05  0.2415348E+01  0.3141793E+02
  0.3800000E+00  0.7891314E+00  0.1222805E+02 -0.5700712E-07 -0.1114386E-05  0.2415348E+01  0.3741875E+02
  0.3900000E+00  0.7891314E+00  0.1358663E+02 -0.5700712E-07 -0.6531076E-06  0.2415348E+01  0.4157644E+02
  0.4000000E+00  0.7891314E+00  0.1435771E+02 -0.5700712E-07 -0.1239557E-06  0.2415348E+01  0.4393623E+02
  0.4100000E+00  0.7891314E+00  0.1457410E+02 -0.5700712E-07  0.4589375E-06  0.2415348E+01  0.4459857E+02
  0.4200000E+00  0.7891314E+00  0.1428463E+02 -0.5700712E-07  0.1079353E-05  0.2415348E+01  0.4371281E+02
  0.4300000E+00  0.7891314E+00  0.1355162E+02 -0.5700712E-07  0.1719520E-05  0.2415348E+01  0.4146979E+02
  0.4400000E+00  0.7891314E+00  0.1244809E+02 -0.5700712E-07  0.2360662E-05  0.2415348E+01  0.3809288E+02
  0.4500000E+00  0.7891314E+00  0.1105470E+02 -0.5700712E-07  0.2983602E-05  0.2415348E+01  0.3382892E+02
  0.4600000E+00  0.7891314E+00  0.9456472E+01 -0.5700712E-07  0.3569396E-05  0.2415348E+01  0.2893809E+02
  0.4700000E+00  0.7891314E+00  0.7739659E+01 -0.5700712E-07  0.4099951E-05  0.2415348E+01  0.2368440E+02
  0.4800000E+00  0.7891314E+00  0.5988608E+01 -0.5700712E-07  0.4558596E-05  0.2415348E+01  0.1832592E+02
  0.4900000E+00  0.7891314E+00  0.4282807E+01 -0.5700712E-07  0.4930662E-05  0.2415348E+01  0.1310593E+02
  0.5000000E+00  0.7891314E+00  0.2694321E+01 -0.5700712E-07  0.5203963E-05  0.2415348E+01  0.8244937E+01
  0.5100000E+00  0.7891314E+00  0.1285492E+01 -0.5700712E-07  0.5369203E-05  0.2415348E+01  0.3933757E+01
  0.5200000E+00  0.7891314E+00  0.1071791E+00 -0.5700712E-07  0.5420320E-05  0.2415348E+01  0.3279961E+00
  0.5300000E+00  0.7891314E+00 -0.8026108E+00 -0.5700712E-07  0.5354696E-05  0.2415348E+01 -0.2456026E+01
  0.5400000E+00  0.7891314E+00 -0.1419466E+01 -0.5700712E-07  0.5173284E-05  0.2415348E+01 -0.4343578E+01
  0.5500000E+00  0.7891314E+00 -0.1732860E+01 -0.5700712E-07  0.4880603E-05  0.2415348E+01 -0.5302482E+01
  0.5600000E+00  0.7891314E+00 -0.1745916E+01 -0.5700712E-07  0.4484647E-05  0.2415348E+01 -0.5342268E+01
  0.5700000E+00  0.7891314E+00 -0.1474616E+01 -0.5700712E-07  0.3996634E-05  0.2415348E+01 -0.4511868E+01
  0.5800000E+00  0.7891314E+00 -0.9466443E+00 -0.5700712E-07  0.3430708E-05  0.2415348E+01 -0.2895989E+01
  0.5900000E+00  0.7891314E+00 -0.1997709E+00 -0.5700712E-07  0.2803510E-05  0.2415348E+01 -0.6102464E+00
  0.6000000E+00  0.7891314E+00  0.7200564E+00 -0.5700712E-07  0.2133675E-05  0.2415348E+01  0.2204800E+01
  0.6100000E+00  0.7891314E+00  0.1760876E+01 -0.5700712E-07  0.1441267E-05  0.2415348E+01  0.5390068E+01
  0.6200000E+00  0.7891314E+00  0.2866978E+01 -0.5700712E-07  0.7471713E-06  0.2415348E+01  0.8775125E+01
  0.6300000E+00  0.7891314E+00  0.3981346E+01 -0.5700712E-07  0.7242910E-07  0.2415348E+01  0.1218545E+02
  0.6400000E+00  0.7891314E+00  0.5047946E+01 -0.5700712E-07 -0.5623904E-06  0.2415348E+01  0.1544959E+02
  0.6500000E+00  0.7891314E+00  0.6013999E+01 -0.5700712E-07 -0.1137859E-05  0.2415348E+01  0.1840600E+02
  0.6600000E+00  0.7891314E+00  0.6831983E+01 -0.5700712E-07 -0.1636289E-05  0.2415348E+01  0.2090927E+02
  0.6700000E+00  0.7891314E+00  0.7461445E+01 -0.5700712E-07 -0.2042288E-05  0.2415348E+01  0.2283558E+02
  0.6800000E+00  0.7891314E+00  0.7870435E+01 -0.5700712E-07 -0.2343262E-05  0.2415348E+01  0.2408720E+02
  0.6900000E+00  0.7891314E+00  0.8036608E+01 -0.5700712E-07 -0.2529807E-05  0.2415348E+01  0.2459568E+02
  0.7000000E+00  0.7891314E+00  0.7947894E+01 -0.5700712E-07 -0.2596034E-05  0.2415348E+01  0.2432413E+02
  0.7100000E+00  0.7891314E+00  0.7602770E+01 -0.5700712E-07 -0.2539754E-05  0.2415348E+01  0.2326789E+02
  0.7200000E+00  0.7891314E+00  0.7010134E+01 -0.5700712E-07 -0.2362566E-05  0.2415348E+01  0.2145416E+02
  0.7300000E+00  0.7891314E+00  0.6188741E+01 -0.5700712E-07 -0.2069830E-05  0.2415348E+01  0.1894037E+02
  0.7400000E+00  0.7891314E+00  0.5166278E+01 -0.5700712E-07 -0.1670502E-05  0.2415348E+01  0.1581123E+02
  0.7500000E+00  0.7891314E+00  0.3978192E+01 -0.5700712E-07 -0.1176887E-05  0.2415348E+01  0.1217522E+02
  0.7600000E+00  0.7891314E+00  0.2666088E+01 -0.5700712E-07 -0.6042517E-06  0.2415348E+01  0.8159678E+01
  0.7700000E+00  0.7891314E+00  0.1276079E+01 -0.5700712E-07  0.2963565E-07  0.2415348E+01  0.3905697E+01
  0.7800000E+00  0.7891314E+00 -0.1430974E+00 -0.5700712E-07  0.7050440E-06  0.2415348E+01 -0.4375346E+00
  0.7900000E+00  0.7891314E+00 -0.1541984E+01 -0.5700712E-07  0.1400897E-05  0.2415348E+01 -0.4718694E+01
  0.8000000E+00  0.7891314E+00 -0.2872335E+01 -0.5700712E-07  0.2095418E-05  0.2415348E+01 -0.8790113E+01
  0.8100000E+00  0.7891314E+00 -0.4088926E+01 -0.5700712E-07  0.2766809E-05  0.2415348E+01 -0.1251339E+02
  0.8200000E+00  0.7891314E+00 -0.5151221E+01 -0.5700712E-07  0.3393930E-05  0.2415348E+01 -0.1576448E+02
  0.8300000E+00  0.7891314E+00 -0.6024866E+01 -0.5700712E-07  0.3956961E-05  0.2415348E+01 -0.1843824E+02
  0.8400000E+00  0.7891314E+00 -0.6682899E+01 -0.5700712E-07  0.4438031E-05  0.2415348E+01 -0.2045215E+02
  0.8500000E+00  0.7891314E+00 -0.7106622E+01 -0.5700712E-07  0.4821765E-05  0.2415348E+01 -0.2174900E+02
  0.8600000E+00  0.7891314E+00 -0.7286201E+01 -0.5700712E-07  0.5095778E-05  0.2415348E+01 -0.2229866E+02
  0.8700000E+00  0.7891314E+00 -0.7220876E+01 -0.5700712E-07  0.5251073E-05  0.2415348E+01 -0.2209886E+02
  0.8800000E+00  0.7891314E+00 -0.6918863E+01 -0.5700712E-07  0.5282319E-05  0.2415348E+01 -0.2117468E+02
  0.8900000E+00  0.7891314E+00 -0.6396881E+01 -0.5700712E-07  0.5188025E-05  0.2415348E+01 -0.1957731E+02
  0.9000000E+00  0.7891314E+00 -0.5679376E+01 -0.5700712E-07  0.4970609E-05  0.2415348E+01 -0.1738155E+02
  0.9100000E+00  0.7891314E+00 -0.4797476E+01 -0.5700712E-07  0.4636310E-05  0.2415348E+01 -0.1468268E+02
  0.9200000E+00  0.7891314E+00 -0.3787722E+01 -0.5700712E-07  0.4195004E-05  0.2415348E+01 -0.1159250E+02
  0.9300000E+00  0.7891314E+00 -0.2690593E+01 -0.5700712E-07  0.3659902E-05  0.2415348E+01 -0.8234899E+01
  0.9400000E+00  0.7891314E+00 -0.1548913E+01 -0.5700712E-07  0.3047150E-05  0.2415348E+01 -0.4740931E+01
  0.9500000E+00  0.7891314E+00 -0.4062127E+00 -0.5700712E-07  0.2375301E-05  0.2415348E+01 -0.1243825E+01
  0.9600000E+00  0.7891314E+00  0.6949182E+00 -0.5700712E-07  0.1664756E-05  0.2415348E+01  0.2126092E+01
  0.9700000E+00  0.7891314E+00  0.1714388E+01 -0.5700712E-07  0.9371095E-06  0.2415348E+01  0.5246127E+01
  0.9800000E+00  0.7891314E+00  0.2616096E+01 -0.5700712E-07  0.2144827E-06  0.2415348E+01  0.8005790E+01
  0.9899999E+00  0.7891314E+00  0.3369193E+01 -0.5700712E-07 -0.4811828E-06  0.2415348E+01  0.1031067E+02
  0.1000000E+01  0.7891314E+00  0.3949120E+01 -0.5700712E-07 -0.1128820E-05  0.2415348E+01  0.1208559E+02
  0.1010000E+01  0.7891314E+00  0.4338433E+01 -0.5700712E-07 -0.1708883E-05  0.2415348E+01  0.1327718E+02
  0.1020000E+01  0.7891314E+00  0.4527320E+01 -0.5700712E-07 -0.2204003E-05  0.2415348E+01  0.1385540E+02
  0.1030000E+01  0.7891314E+00  0.4513815E+01 -0.5700712E-07 -0.2599517E-05  0.2415348E+01  0.1381423E+02
  0.1040000E+01  0.7891314E+00  0.4303711E+01 -0.5700712E-07 -0.2883949E-05  0.2415348E+01  0.1317139E+02
  0.1050000E+01  0.7891314E+00  0.3910208E+01 -0.5700712E-07 -0.3049379E-05  0.2415348E+01  0.1196726E+02
  0.1060000E+01  0.7891314E+00  0.3353244E+01 -0.5700712E-07 -0.3091691E-05  0.2415348E+01  0.1026288E+02
  0.1070000E+01  0.7891314E+00  0.2658633E+01 -0.5700712E-07 -0.3010726E-05  0.2415348E+01  0.8137225E+01
  0.1080000E+01  0.7891314E+00  0.1856963E+01 -0.5700712E-07 -0.2810299E-05  0.2415348E+01  0.5683900E+01
  0.1090000E+01  0.7891314E+00  0.9823068E+00 -0.5700712E-07 -0.2498068E-05  0.2415348E+01  0.3007179E+01
  0.1100000E+01  0.7891314E+00  0.7094191E-01 -0.5700712E-07 -0.2085332E-05  0.2415348E+01  0.2180791E+00
  0.1110000E+01  0.7891314E+00 -0.8401534E+00 -0.5700712E-07 -0.1586656E-05  0.2415348E+01 -0.2570228E+01
  0.1120000E+01  0.7891314E+00 -0.1714700E+01 -0.5700712E-07 -0.1019427E-05  0.2415348E+01 -0.5246717E+01
  0.1130000E+01  0.7891314E+00 -0.2518460E+01 -0.5700712E-07 -0.4033117E-06  0.2415348E+01 -0.7706614E+01
  0.1140000E+01  0.7891314E+00 -0.3220539E+01 -0.5700712E-07  0.2403605E-06  0.2415348E+01 -0.9855363E+01
  0.1150000E+01  0.7891314E+00 -0.3794500E+01 -0.5700712E-07  0.8892733E-06  0.2415348E+01 -0.1161206E+02
  0.1160000E+01  0.7891314E+00 -0.4219274E+01 -0.5700712E-07  0.1520827E-05  0.2415348E+01 -0.1291220E+02
  0.1170000E+01  0.7891314E+00 -0.4479884E+01 -0.5700712E-07  0.2112852E-05  0.2415348E+01 -0.1370997E+02
  0.1180000E+01  0.7891314E+00 -0.4567913E+01 -0.5700712E-07  0.2644325E-05  0.2415348E+01 -0.1397959E+02
  0.1190000E+01  0.7891314E+00 -0.4481723E+01 -0.5700712E-07  0.3096029E-05  0.2415348E+01 -0.1371604E+02
  0.1200000E+01  0.7891314E+00 -0.4226371E+01 -0.5700712E-07  0.3451185E-05  0.2415348E+01 -0.1293478E+02
  0.1210000E+01  0.7891314E+00 -0.3813329E+01 -0.5700712E-07  0.3695984E-05  0.2415348E+01 -0.1167094E+02
  0.1220000E+01  0.7891314E+00 -0.3259934E+01 -0.5700712E-07  0.3820040E-05  0.2415348E+01 -0.9977541E+01
  0.1230000E+01  0.7891314E+00 -0.2588634E+01 -0.5700712E-07  0.3816742E-05  0.2415348E+01 -0.7923284E+01
  0.1240000E+01  0.7891314E+00 -0.1826060E+01 -0.5700712E-07  0.3683479E-05  0.2415348E+01 -0.5589666E+01
  0.1250000E+01  0.7891314E+00 -0.1001892E+01 -0.5700712E-07  0.3421746E-05  0.2415348E+01 -0.3067506E+01
  0.1260000E+01  0.7891314E+00 -0.1477349E+00 -0.5700712E-07  0.3037112E-05  0.2415348E+01 -0.4535267E+00
  0.1270000E+01  0.7891314E+00  0.7041069E+00 -0.5700712E-07  0.2539073E-05  0.2415348E+01  0.2153404E+01
  0.1280000E+01  0.7891314E+00  0.1521924E+01 -0.5700712E-07  0.1940771E-05  0.2415348E+01  0.4656260E+01
  0.1290000E+01  0.7891314E+00  0.2275743E+01 -0.5700712E-07  0.1258607E-05  0.2415348E+01  0.6963309E+01
  0.1300000E+01  0.7891314E+00  0.2938453E+01 -0.5700712E-07  0.5117373E-06  0.2415348E+01  0.8991565E+01
  0.1310000E+01  0.7891314E+00  0.3486798E+01 -0.5700712E-07 -0.2785063E-06  0.2415348E+01  0.1066987E+02
  0.1320000E+01  0.7891314E+00  0.3902158E+01 -0.5700712E-07 -0.1089273E-05  0.2415348E+01  0.1194123E+02
  0.1330000E+01  0.7891314E+00  0.4171224E+01 -0.5700712E-07 -0.1896893E-05  0.2415348E+01  0.1276491E+02
  0.1340000E+01  0.7891314E+00  0.4286366E+01 -0.5700712E-07 -0.2677613E-05  0.2415348E+01  0.1311755E+02
  0.1350000E+01  0.7891314E+00  0.4245863E+01 -0.5700712E-07 -0.3408345E-05  0.2415348E+01  0.1299387E+02
  0.1360000E+01  0.7891314E+00  0.4053842E+01 -0.5700712E-07 -0.4067348E-05  0.2415348E+01  0.1240649E+02
  0.1370000E+01  0.7891314E+00  0.3720029E+01 -0.5700712E-07 -0.4634961E-05  0.2415348E+01  0.1138518E+02
  0.1380000E+01  0.7891314E+00  0.3259316E+01 -0.5700712E-07 -0.5094179E-05  0.2415348E+01  0.9975496E+01
  0.1390000E+01  0.7891314E+00  0.2691040E+01 -0.5700712E-07 -0.5431215E-05  0.2415348E+01  0.8236608E+01
  0.1400000E+01  0.7891314E+00  0.2038231E+01 -0.5700712E-07 -0.5635920E-05  0.2415348E+01  0.6238986E+01
  0.1410000E+01  0.7891314E+00  0.1326679E+01 -0.5700712E-07 -0.5702115E-05  0.2415348E+01  0.4061552E+01
  0.1420000E+01  0.7891314E+00  0.5838773E+00 -0.5700712E-07 -0.5627809E-05  0.2415348E+01  0.1788433E+01
  0.1430000E+01  0.7891314E+00 -0.1620087E+00 -0.5700712E-07 -0.5415255E-05  0.2415348E+01 -0.4941733E+00
  0.1440000E+01  0.7891314E+00 -0.8832715E+00 -0.5700712E-07 -0.5070903E-05  0.2415348E+01 -0.2701478E+01
  0.1450000E+01  0.7891314E+00 -0.1553618E+01 -0.5700712E-07 -0.4605220E-05  0.2415348E+01 -0.4753012E+01
  0.1460000E+01  0.7891314E+00 -0.2149213E+01 -0.5700712E-07 -0.4032376E-05  0.2415348E+01 -0.6575834E+01
  0.1470000E+01  0.7891314E+00 -0.2649484E+01 -0.5700712E-07 -0.3369811E-05  0.2415348E+01 -0.8106986E+01
  0.1480000E+01  0.7891314E+00 -0.3037853E+01 -0.5700712E-07 -0.2637713E-05  0.2415348E+01 -0.9295718E+01
  0.1490000E+01  0.7891314E+00 -0.3302285E+01 -0.5700712E-07 -0.1858434E-05  0.2415348E+01 -0.1010520E+02
  0.1500000E+01  0.7891314E+00 -0.3435651E+01 -0.5700712E-07 -0.1055761E-05  0.2415348E+01 -0.1051362E+02
  0.1510000E+01  0.7891314E+00 -0.3435903E+01 -0.5700712E-07 -0.2542261E-06  0.2415348E+01 -0.1051468E+02
  0.1520000E+01  0.7891314E+00 -0.3306052E+01 -0.5700712E-07  0.5216498E-06  0.2415348E+01 -0.1011760E+02
  0.1530000E+01  0.7891314E+00 -0.3053956E+01 -0.5700712E-07  0.1248101E-05  0.2415348E+01 -0.9346410E+01
  0.1540000E+01  0.7891314E+00 -0.2691903E+01 -0.5700712E-07  0.1902842E-05  0.2415348E+01 -0.8238703E+01
  0.1550000E+01  0.7891314E+00 -0.2236103E+01 -0.5700712E-07  0.2465754E-05  0.2415348E+01 -0.6844091E+01
  0.1560000E+01  0.7891314E+00 -0.1705923E+01 -0.5700712E-07  0.2919484E-05  0.2415348E+01 -0.5221810E+01
  0.1570000E+01  0.7891314E+00 -0.1123160E+01 -0.5700712E-07  0.3249981E-05  0.2415348E+01 -0.3438586E+01
  0.1580000E+01  0.7891314E+00 -0.5110945E+00 -0.5700712E-07  0.3446911E-05  0.2415348E+01 -0.1565637E+01
  0.1590000E+01  0.7891314E+00  0.1063690E+00 -0.5700712E-07  0.3503983E-05  0.2415348E+01  0.3238827E+00
  0.1600000E+01  0.7891314E+00  0.7056619E+00 -0.5700712E-07  0.3419114E-05  0.2415348E+01  0.2157843E+01
  0.1610000E+01  0.7891314E+00  0.1264440E+01 -0.5700712E-07  0.3194495E-05  0.2415348E+01  0.3867870E+01
  0.1620000E+01  0.7891314E+00  0.1762361E+01 -0.5700712E-07  0.2836530E-05  0.2415348E+01  0.5391716E+01
  0.1630000E+01  0.7891314E+00  0.2181899E+01 -0.5700712E-07  0.2355602E-05  0.2415348E+01  0.6675741E+01
  0.1640000E+01  0.7891314E+00  0.2508901E+01 -0.5700712E-07  0.1765772E-05  0.2415348E+01  0.7676626E+01
  0.1650000E+01  0.7891314E+00  0.2733035E+01 -0.5700712E-07  0.1084320E-05  0.2415348E+01  0.8362748E+01
  0.1660000E+01  0.7891314E+00  0.2848174E+01 -0.5700712E-07  0.3312291E-06  0.2415348E+01  0.8715362E+01
  0.1670000E+01  0.7891314E+00  0.2852461E+01 -0.5700712E-07 -0.4714522E-06  0.2415348E+01  0.8728756E+01
  0.1680000E+01  0.7891314E+00  0.2748333E+01 -0.5700712E-07 -0.1300270E-05  0.2415348E+01  0.8410393E+01
  0.1690000E+01  0.7891314E+00  0.2542326E+01 -0.5700712E-07 -0.2131104E-05  0.2415348E+01  0.7780263E+01
  0.1700000E+01  0.7891314E+00  0.2244702E+01 -0.5700712E-07 -0.2939891E-05  0.2415348E+01  0.6869758E+01
  0.1710000E+01  0.7891314E+00  0.1869015E+01 -0.5700712E-07 -0.3703359E-05  0.2415348E+01  0.5720348E+01
  0.1720000E+01  0.7891314E+00  0.1431487E+01 -0.5700712E-07 -0.4399743E-05  0.2415348E+01  0.4381670E+01
  0.1730000E+01  0.7891314E+00  0.9503084E+00 -0.5700712E-07 -0.5009439E-05  0.2415348E+01  0.2909376E+01
  0.1740000E+01  0.7891314E+00  0.4449457E+00 -0.5700712E-07 -0.5515555E-05  0.2415348E+01  0.1363036E+01
  0.1750000E+01  0.7891314E+00 -0.6468758E-01 -0.5700712E-07 -0.5904471E-05  0.2415348E+01 -0.1964147E+00
  0.1760000E+01  0.7891314E+00 -0.5590091E+00 -0.5700712E-07 -0.6166172E-05  0.2415348E+01 -0.1709061E+01
  0.1770000E+01  0.7891314E+00 -0.1019494E+01 -0.5700712E-07 -0.6294572E-05  0.2415348E+01 -0.3118210E+01
  0.1780000E+01  0.7891314E+00 -0.1429373E+01 -0.5700712E-07 -0.6287650E-05  0.2415348E+01 -0.4372548E+01
  0.1790000E+01  0.7891314E+00 -0.1774254E+01 -0.5700712E-07 -0.6147476E-05  0.2415348E+01 -0.5428026E+01
  0.1800000E+01  0.7891314E+00 -0.2042623E+01 -0.5700712E-07 -0.5880122E-05  0.2415348E+01 -0.6249414E+01
  0.1810000E+01  0.7891314E+00 -0.2226202E+01 -0.5700712E-07 -0.5495423E-05  0.2415348E+01 -0.6811368E+01
  0.1820000E+01  0.7891314E+00 -0.2320212E+01 -0.5700712E-07 -0.5006660E-05  0.2415348E+01 -0.7099275E+01
  0.1830000E+01  0.7891314E+00 -0.2323476E+01 -0.5700712E-07 -0.4430077E-05  0.2415348E+01 -0.7109498E+01
  0.1840000E+01  0.7891314E+00 -0.2238366E+01 -0.5700712E-07 -0.3784394E-05  0.2415348E+01 -0.6849308E+01
  0.1850000E+01  0.7891314E+00 -0.2070647E+01 -0.5700712E-07 -0.3090131E-05  0.2415348E+01 -0.6336344E+01
  0.1860000E+01  0.7891314E+00 -0.1829130E+01 -0.5700712E-07 -0.2369003E-05  0.2415348E+01 -0.5597549E+01
  0.1870000E+01  0.7891314E+00 -0.1525257E+01 -0.5700712E-07 -0.1643198E-05  0.2415348E+01 -0.4667930E+01
  0.1880000E+01  0.7891314E+00 -0.1172637E+01 -0.5700712E-07 -0.9346597E-06  0.2415348E+01 -0.3589123E+01
  0.1890000E+01  0.7891314E+00 -0.7864016E+00 -0.5700712E-07 -0.2643671E-06  0.2415348E+01 -0.2407427E+01
  0.1900000E+01  0.7891314E+00 -0.3825887E+00 -0.5700712E-07  0.3482544E-06  0.2415348E+01 -0.1171913E+01
  0.1910000E+01  0.7891314E+00  0.2251951E-01 -0.5700712E-07  0.8860521E-06  0.2415348E+01  0.6760415E-01
  0.1920000E+01  0.7891314E+00  0.4130295E+00 -0.5700712E-07  0.1334551E-05  0.2415348E+01  0.1262481E+01
  0.1930000E+01  0.7891314E+00  0.7740719E+00 -0.5700712E-07  0.1682545E-05  0.2415348E+01  0.2367237E+01
  0.1940000E+01  0.7891314E+00  0.1092375E+01 -0.5700712E-07  0.1922307E-05  0.2415348E+01  0.3341243E+01
  0.1950000E+01  0.7891314E+00  0.1356710E+01 -0.5700712E-07  0.2049911E-05  0.2415348E+01  0.4150152E+01
  0.1960000E+01  0.7891314E+00  0.1558353E+01 -0.5700712E-07  0.2065283E-05  0.2415348E+01  0.4767259E+01
  0.1970000E+01  0.7891314E+00  0.1691292E+01 -0.5700712E-07  0.1972211E-05  0.2415348E+01  0.5174172E+01
  0.1980000E+01  0.7891314E+00  0.1752457E+01 -0.5700712E-07  0.1778191E-05  0.2415348E+01  0.5361489E+01
  0.1990000E+01  0.7891314E+00  0.1741759E+01 -0.5700712E-07  0.1494166E-05  0.2415348E+01  0.5328933E+01
  0.2000000E+01  0.7891314E+00  0.1661943E+01 -0.5700712E-07  0.1134161E-05  0.2415348E+01  0.5084904E+01
  0.2010000E+01  0.7891314E+00  0.1518530E+01 -0.5700712E-07  0.7148135E-06  0.2415348E+01  0.4646280E+01
  0.2020000E+01  0.7891314E+00  0.1319430E+01 -0.5700712E-07  0.2548290E-06  0.2415348E+01  0.4037266E+01
  0.2030000E+01  0.7891314E+00  0.1074560E+01 -0.5700712E-07 -0.2256715E-06  0.2415348E+01  0.3288205E+01
  0.2040000E+01  0.7891314E+00  0.7954265E+00 -0.5700712E-07 -0.7057504E-06  0.2415348E+01  0.2434292E+01
  0.2050000E+01  0.7891314E+00  0.4945996E+00 -0.5700712E-07 -0.1164422E-05  0.2415348E+01  0.1513986E+01
  0.2060000E+01  0.7891314E+00  0.1851444E+00 -0.5700712E-07 -0.1581234E-05  0.2415348E+01  0.5672666E+00
  0.2070000E+01  0.7891314E+00 -0.1198708E+00 -0.5700712E-07 -0.1937073E-05  0.2415348E+01 -0.3658879E+00
  0.2080000E+01  0.7891314E+00 -0.4079805E+00 -0.5700712E-07 -0.2214648E-05  0.2415348E+01 -0.1247341E+01
  0.2090000E+01  0.7891314E+00 -0.6677766E+00 -0.5700712E-07 -0.2399203E-05  0.2415348E+01 -0.2042182E+01
  0.2100000E+01  0.7891314E+00 -0.8893404E+00 -0.5700712E-07 -0.2478866E-05  0.2415348E+01 -0.2720068E+01
  0.2110000E+01  0.7891314E+00 -0.1064677E+01 -0.5700712E-07 -0.2445188E-05  0.2415348E+01 -0.3256535E+01
  0.2120000E+01  0.7891314E+00 -0.1187936E+01 -0.5700712E-07 -0.2293312E-05  0.2415348E+01 -0.3633691E+01
  0.2130000E+01  0.7891314E+00 -0.1255643E+01 -0.5700712E-07 -0.2022238E-05  0.2415348E+01 -0.3840888E+01
  0.2140000E+01  0.7891314E+00 -0.1266775E+01 -0.5700712E-07 -0.1634814E-05  0.2415348E+01 -0.3875012E+01
  0.2150000E+01  0.7891314E+00 -0.1222720E+01 -0.5700712E-07 -0.1137729E-05  0.2415348E+01 -0.3740295E+01
  0.2160000E+01  0.7891314E+00 -0.1127197E+01 -0.5700712E-07 -0.5412838E-06  0.2415348E+01 -0.3448128E+01
  0.2170000E+01  0.7891314E+00 -0.9860366E+00 -0.5700712E-07  0.1409061E-06  0.2415348E+01 -0.3016342E+01
  0.2180000E+01  0.7891314E+00 -0.8068200E+00 -0.5700712E-07  0.8923033E-06  0.2415348E+01 -0.2468133E+01
  0.2190000E+01  0.7891314E+00 -0.5986272E+00 -0.5700712E-07  0.1693897E-05  0.2415348E+01 -0.1831274E+01
  0.2200000E+01  0.7891314E+00 -0.3715106E+00 -0.5700712E-07  0.2524897E-05  0.2415348E+01 -0.1136526E+01
  0.2210000E+01  0.7891314E+00 -0.1361103E+00 -0.5700712E-07  0.3363244E-05  0.2415348E+01 -0.4164400E+00
  0.2220000E+01  0.7891314E+00  0.9687545E-01 -0.5700712E-07  0.4186381E-05  0.2415348E+01  0.2962548E+00
  0.2230000E+01  0.7891314E+00  0.3170905E+00 -0.5700712E-07  0.4971831E-05  0.2415348E+01  0.9698709E+00
  0.2240000E+01  0.7891314E+00  0.5149775E+00 -0.5700712E-07  0.5698008E-05  0.2415348E+01  0.1575180E+01
  0.2250000E+01  0.7891314E+00  0.6822494E+00 -0.5700712E-07  0.6344741E-05  0.2415348E+01  0.2086825E+01
  0.2260000E+01  0.7891314E+00  0.8121260E+00 -0.5700712E-07  0.6894038E-05  0.2415348E+01  0.2484065E+01
  0.2270000E+01  0.7891314E+00  0.8996445E+00 -0.5700712E-07  0.7330484E-05  0.2415348E+01  0.2751714E+01
  0.2280000E+01  0.7891314E+00  0.9418570E+00 -0.5700712E-07  0.7641849E-05  0.2415348E+01  0.2880761E+01
  0.2290000E+01  0.7891314E+00  0.9378878E+00 -0.5700712E-07  0.7819360E-05  0.2415348E+01  0.2868532E+01
  0.2300000E+01  0.7891314E+00  0.8889691E+00 -0.5700712E-07  0.7858038E-05  0.2415348E+01  0.2718798E+01
  0.2310000E+01  0.7891314E+00  0.7983714E+00 -0.5700712E-07  0.7756807E-05  0.2415348E+01  0.2441570E+01
  0.2320000E+01  0.7891314E+00  0.6711507E+00 -0.5700712E-07  0.7518552E-05  0.2415348E+01  0.2052315E+01
  0.2330000E+01  0.7891314E+00  0.5139354E+00 -0.5700712E-07  0.7150041E-05  0.2415348E+01  0.1571321E+01
  0.2340000E+01  0.7891314E+00  0.3346905E+00 -0.5700712E-07  0.6661690E-05  0.2415348E+01  0.1022956E+01
  0.2350000E+01  0.7891314E+00  0.1422205E+00 -0.5700712E-07  0.6067289E-05  0.2415348E+01  0.4341561E+00
  0.2360000E+01  0.7891314E+00 -0.5416712E-01 -0.5700712E-07  0.5383572E-05  0.2415348E+01 -0.1665995E+00
  0.2370000E+01  0.7891314E+00 -0.2450896E+00 -0.5700712E-07  0.4629695E-05  0.2415348E+01 -0.7506045E+00
  0.2380000E+01  0.7891314E+00 -0.4215029E+00 -0.5700712E-07  0.3826718E-05  0.2415348E+01 -0.1290189E+01
  0.2390000E+01  0.7891314E+00 -0.5751358E+00 -0.5700712E-07  0.2996898E-05  0.2415348E+01 -0.1760056E+01
  0.2400000E+01  0.7891314E+00 -0.6988086E+00 -0.5700712E-07  0.2163126E-05  0.2415348E+01 -0.2138234E+01
  0.2410000E+01  0.7891314E+00 -0.7867618E+00 -0.5700712E-07  0.1348138E-05  0.2415348E+01 -0.2407113E+01
  0.2420000E+01  0.7891314E+00 -0.8349521E+00 -0.5700712E-07  0.5739537E-06  0.2415348E+01 -0.2554329E+01
  0.2430000E+01  0.7891314E+00 -0.8411475E+00 -0.5700712E-07 -0.1388816E-06  0.2415348E+01 -0.2573056E+01
  0.2440000E+01  0.7891314E+00 -0.8050502E+00 -0.5700712E-07 -0.7717851E-06  0.2415348E+01 -0.2462388E+01
  0.2450000E+01  0.7891314E+00 -0.7283625E+00 -0.5700712E-07 -0.1308756E-05  0.2415348E+01 -0.2227546E+01
  0.2460000E+01  0.7891314E+00 -0.6146253E+00 -0.5700712E-07 -0.1736789E-05  0.2415348E+01 -0.1879366E+01
  0.2470000E+01  0.7891314E+00 -0.4690278E+00 -0.5700712E-07 -0.2046284E-05  0.2415348E+01 -0.1433735E+01
  0.2480000E+01  0.7891314E+00 -0.2983407E+00 -0.5700712E-07 -0.2231242E-05  0.2415348E+01 -0.9113761E+00
  0.2490000E+01  0.7891314E+00 -0.1104439E+00 -0.5700712E-07 -0.2289478E-05  0.2415348E+01 -0.3363944E+00
  0.2500000E+01  0.7891314E+00  0.8594715E-01 -0.5700712E-07 -0.2222619E-05  0.2415348E+01  0.2645244E+00
  0.2510000E+01  0.7891314E+00  0.2816964E+00 -0.5700712E-07 -0.2036037E-05  0.2415348E+01  0.8634382E+00
  0.2520000E+01  0.7891314E+00  0.4676080E+00 -0.5700712E-07 -0.1738647E-05  0.2415348E+01  0.1432203E+01
  0.2530000E+01  0.7891314E+00  0.6348835E+00 -0.5700712E-07 -0.1342647E-05  0.2415348E+01  0.1943898E+01
  0.2540000E+01  0.7891314E+00  0.7754773E+00 -0.5700712E-07 -0.8630690E-06  0.2415348E+01  0.2373916E+01
  0.2550000E+01  0.7891314E+00  0.8824823E+00 -0.5700712E-07 -0.3173651E-06  0.2415348E+01  0.2701118E+01
  0.2560000E+01  0.7891314E+00  0.9504527E+00 -0.5700712E-07  0.2752106E-06  0.2415348E+01  0.2908850E+01
  0.2570000E+01  0.7891314E+00  0.9755833E+00 -0.5700712E-07  0.8940896E-06  0.2415348E+01  0.2985475E+01
  0.2580000E+01  0.7891314E+00  0.9559627E+00 -0.5700712E-07  0.1518158E-05  0.2415348E+01  0.2925155E+01
  0.2590000E+01  0.7891314E+00  0.8916708E+00 -0.5700712E-07  0.2126237E-05  0.2415348E+01  0.2728145E+01
  0.2600000E+01  0.7891314E+00  0.7847227E+00 -0.5700712E-07  0.2697878E-05  0.2415348E+01  0.2400612E+01
  0.2610000E+01  0.7891314E+00  0.6390740E+00 -0.5700712E-07  0.3213830E-05  0.2415348E+01  0.1954671E+01
  0.2620000E+01  0.7891314E+00  0.4604495E+00 -0.5700712E-07  0.3656728E-05  0.2415348E+01  0.1407850E+01
  0.2630000E+01  0.7891314E+00  0.2560711E+00 -0.5700712E-07  0.4011493E-05  0.2415348E+01  0.7822557E+00
  0.2640000E+01  0.7891314E+00  0.3443167E-01 -0.5700712E-07  0.4265857E-05  0.2415348E+01  0.1038813E+00
  0.2650000E+01  0.7891314E+00 -0.1951327E+00 -0.5700712E-07  0.4410631E-05  0.2415348E+01 -0.5986997E+00
  0.2660000E+01  0.7891314E+00 -0.4227637E+00 -0.5700712E-07  0.4440011E-05  0.2415348E+01 -0.1295317E+01
  0.2670000E+01  0.7891314E+00 -0.6385304E+00 -0.5700712E-07  0.4351676E-05  0.2415348E+01 -0.1955576E+01
  0.2680000E+01  0.7891314E+00 -0.8328570E+00 -0.5700712E-07  0.4146850E-05  0.2415348E+01 -0.2550181E+01
  0.2690000E+01  0.7891314E+00 -0.9969260E+00 -0.5700712E-07  0.3830207E-05  0.2415348E+01 -0.3052145E+01
  0.2700000E+01  0.7891314E+00 -0.1123030E+01 -0.5700712E-07  0.3409736E-05  0.2415348E+01 -0.3437888E+01
  0.2710000E+01  0.7891314E+00 -0.1204978E+01 -0.5700712E-07  0.2896407E-05  0.2415348E+01 -0.3688474E+01
  0.2720000E+01  0.7891314E+00 -0.1238322E+01 -0.5700712E-07  0.2303859E-05  0.2415348E+01 -0.3790281E+01
  0.2730000E+01  0.7891314E+00 -0.1220576E+01 -0.5700712E-07  0.1647913E-05  0.2415348E+01 -0.3735729E+01
  0.2740000E+01  0.7891314E+00 -0.1151364E+01 -0.5700712E-07  0.9461208E-06  0.2415348E+01 -0.3523664E+01
  0.2750000E+01  0.7891314E+00 -0.1032450E+01 -0.5700712E-07  0.2171308E-06  0.2415348E+01 -0.3159492E+01
  0.2760000E+01  0.7891314E+00 -0.8676801E+00 -0.5700712E-07 -0.5197784E-06  0.2415348E+01 -0.2654993E+01
  0.2770000E+01  0.7891314E+00 -0.6628864E+00 -0.5700712E-07 -0.1245425E-05  0.2415348E+01 -0.2028022E+01
  0.2780000E+01  0.7891314E+00 -0.4256491E+00 -0.5700712E-07 -0.1941179E-05  0.2415348E+01 -0.1301784E+01