VARIABLES="w (rad/s)"
"abs(F   1   1)" "angle(F   1   1)"
"abs(F   1   2)" "angle(F   1   2)"
"abs(F   1   3)" "angle(F   1   3)"
Zone t="Diffraction force - beta =   0.000 deg",I=    32,F=POINT
  0.1000000E+00  0.5668982E+03 -0.1570796E+01  0.3528658E+06 -0.1839870E-04  0.2646320E+04 -0.1570794E+01
  0.2000000E+00  0.2259956E+04 -0.1570794E+01  0.3492877E+06 -0.2913300E-03  0.1055096E+05 -0.1570796E+01
  0.3000000E+00  0.5051852E+04 -0.1570786E+01  0.3432168E+06 -0.1449196E-02  0.2359817E+05 -0.1570786E+01
  0.4000000E+00  0.8897932E+04 -0.1570740E+01  0.3346629E+06 -0.4465782E-02  0.4159280E+05 -0.1570740E+01
  0.5000000E+00  0.1373629E+05 -0.1570591E+01  0.3237684E+06 -0.1054642E-01  0.6426741E+05 -0.1570591E+01
  0.6000001E+00  0.1948345E+05 -0.1570217E+01  0.3108237E+06 -0.2098944E-01  0.9125512E+05 -0.1570217E+01
  0.7000000E+00  0.2603448E+05 -0.1569433E+01  0.2962373E+06 -0.3704424E-01  0.1220828E+06 -0.1569432E+01
  0.8000001E+00  0.3328858E+05 -0.1568002E+01  0.2805330E+06 -0.5981116E-01  0.1563234E+06 -0.1568002E+01
  0.9000000E+00  0.4105948E+05 -0.1565675E+01  0.2641356E+06 -0.9014021E-01  0.1931114E+06 -0.1565675E+01
  0.1000000E+01  0.4918675E+05 -0.1562260E+01  0.2475855E+06 -0.1286685E+00  0.2317265E+06 -0.1562260E+01
  0.1100000E+01  0.5738678E+05 -0.1557740E+01  0.2311620E+06 -0.1757278E+00  0.2708318E+06 -0.1557741E+01
  0.1200000E+01  0.6541278E+05 -0.1552422E+01  0.2152603E+06 -0.2316069E+00  0.3093053E+06 -0.1552423E+01
  0.1300000E+01  0.7287458E+05 -0.1547010E+01  0.2000191E+06 -0.2961869E+00  0.3452525E+06 -0.1547010E+01
  0.1400000E+01  0.7942066E+05 -0.1542843E+01  0.1855355E+06 -0.3694362E+00  0.3770266E+06 -0.1542843E+01
  0.1500000E+01  0.8473851E+05 -0.1541804E+01  0.1719340E+06 -0.4512883E+00  0.4031125E+06 -0.1541803E+01
  0.1600000E+01  0.8858028E+05 -0.1546220E+01  0.1592587E+06 -0.5416018E+00  0.4222830E+06 -0.1546220E+01
  0.1700000E+01  0.9082798E+05 -0.1558577E+01  0.1474992E+06 -0.6402141E+00  0.4339276E+06 -0.1558576E+01
  0.1800000E+01  0.9151470E+05 -0.1581182E+01  0.1366305E+06 -0.7469511E+00  0.4381510E+06 -0.1581182E+01
  0.1900000E+01  0.9080927E+05 -0.1615929E+01  0.1266113E+06 -0.8617301E+00  0.4357062E+06 -0.1615930E+01
  0.2000000E+01  0.8896459E+05 -0.1664088E+01  0.1173820E+06 -0.9843647E+00  0.4277638E+06 -0.1664093E+01
  0.2100000E+01  0.8625933E+05 -0.1726338E+01  0.1088816E+06 -0.1114769E+01  0.4156235E+06 -0.1726349E+01
  0.2200000E+01  0.8296972E+05 -0.1802879E+01  0.1010786E+06 -0.1252998E+01  0.4005932E+06 -0.1802903E+01
  0.2300000E+01  0.7931642E+05 -0.1893442E+01  0.9388996E+05 -0.1398886E+01  0.3837228E+06 -0.1893485E+01
  0.2400000E+01  0.7548297E+05 -0.1997583E+01  0.8726526E+05 -0.1552479E+01  0.3658897E+06 -0.1997658E+01
  0.2500000E+01  0.7160878E+05 -0.2114771E+01  0.8117369E+05 -0.1714029E+01  0.3477669E+06 -0.2114894E+01
  0.2600000E+01  0.6777184E+05 -0.2244311E+01  0.7552323E+05 -0.1883589E+01  0.3297387E+06 -0.2244492E+01
  0.2700000E+01  0.6404727E+05 -0.2385618E+01  0.7027497E+05 -0.2061760E+01  0.3121768E+06 -0.2385880E+01
  0.2800000E+01  0.6046936E+05 -0.2538299E+01  0.6529713E+05 -0.2250299E+01  0.2952564E+06 -0.2538628E+01
  0.2900000E+01  0.5706488E+05 -0.2701755E+01  0.6035915E+05 -0.2455540E+01  0.2791143E+06 -0.2702192E+01
  0.3000000E+01  0.5383000E+05 -0.2875628E+01  0.5241591E+05 -0.2742698E+01  0.2637412E+06 -0.2876179E+01
  0.3100000E+01  0.5076031E+05 -0.3059616E+01  0.5768757E+05 -0.2721862E+01  0.2491234E+06 -0.3060221E+01
  0.3200000E+01  0.4785143E+05  0.3029373E+01  0.5222521E+05 -0.2992063E+01  0.2352430E+06  0.3028679E+01
