VARIABLES="X" "Y" "Z" "NX" "NY" "NZ" "A"
 ZONE N=        2548 , E=         637  , F=FEPOINT,ET=QUADRILATERAL
   0.1466674E+00   0.9416400E-02  -0.1000000E-01   0.0000000E+00   0.0000000E+00   0.0000000E+00   0.0000000E+00
   0.1483552E+00   0.9524700E-02   0.0000000E+00   0.0000000E+00   0.0000000E+00   0.0000000E+00   0.0000000E+00
   0.1469694E+00   0.0000000E+00  -0.1000000E-01   0.0000000E+00   0.0000000E+00   0.0000000E+00   0.0000000E+00
   0.1486607E+00   0.0000000E+00   0.0000000E+00   0.0000000E+00   0.0000000E+00   0.0000000E+00   0.0000000E+00
   0.1457628E+00   0.1879400E-01  -0.1000000E-01   0.0000000E+00   0.0000000E+00   0.0000000E+00   0.0000000E+00
   0.1474402E+00   0.1901030E-01   0.0000000E+00   0.0000000E+00   0.0000000E+00   0.0000000E+00   0.0000000E+00
   0.1466674E+00   0.9416400E-02  -0.1000000E-01   0.0000000E+00   0.0000000E+00   0.0000000E+00   0.0000000E+00
   0.1483552E+00   0.9524700E-02   0.0000000E+00   0.0000000E+00   0.0000000E+00   0.0000000E+00   0.0000000E+00
   0.1442591E+00   0.2809450E-01  -0.1000000E-01   0.0000000E+00   0.0000000E+00   0.0000000E+00   0.0000000E+00
   0.1459193E+00   0.2841780E-01   0.0000000E+00   0.0000000E+00   0.0000000E+00   0.0000000E+00   0.0000000E+00
   0.1457628E+00   0.1879400E-01  -0.1000000E-01   0.0000000E+00   0.0000000E+00   0.0000000E+00   0.0000000E+00
   0.1474402E+00   0.1901030E-01   0.0000000E+00   0.0000000E+00   0.0000000E+00   0.0000000E+00   0.0000000E+00
   0.1421627E+00   0.3727950E-01  -0.1000000E-01   0.0000000E+00   0.0000000E+00   0.0000000E+00   0.0000000E+00
   0.1437987E+00   0.3770850E-01   0.0000000E+00   0.0000000E+00   0.0000000E+00   0.0000000E+00   0.0000000E+00
   0.1442591E+00   0.2809450E-01  -0.1000000E-01   0.0000000E+00   0.0000000E+00   0.0000000E+00   0.0000000E+00
   0.1459193E+00   0.2841780E-01   0.0000000E+00   0.0000000E+00   0.0000000E+00   0.0000000E+00   0.0000000E+00
   0.1394821E+00   0.4631130E-01  -0.1000000E-01   0.0000000E+00   0.0000000E+00   0.0000000E+00   0.0000000E+00
   0.1410873E+00   0.4684420E-01   0.0000000E+00   0.0000000E+00   0.0000000E+00   0.0000000E+00   0.0000000E+00
   0.1421627E+00   0.3727950E-01  -0.1000000E-01   0.0000000E+00   0.0000000E+00   0.0000000E+00   0.0000000E+00
   0.1437987E+00   0.3770850E-01   0.0000000E+00   0.0000000E+00   0.0000000E+00   0.0000000E+00   0.0000000E+00
   0.1362284E+00   0.5515280E-01  -0.1000000E-01   0.0000000E+00   0.0000000E+00   0.0000000E+00   0.0000000E+00
   0.1377961E+00   0.5578750E-01   0.0000000E+00   0.0000000E+00   0.0000000E+00   0.0000000E+00   0.0000000E+00
   0.1394821E+00   0.4631130E-01  -0.1000000E-01   0.0000000E+00   0.0000000E+00   0.0000000E+00   0.0000000E+00
   0.1410873E+00   0.4684420E-01   0.0000000E+00   0.0000000E+00   0.0000000E+00   0.0000000E+00   0.0000000E+00
   0.1324148E+00   0.6376760E-01  -0.1000000E-01   0.0000000E+00   0.0000000E+00   0.0000000E+00   0.0000000E+00
   0.1339387E+00   0.6450140E-01   0.0000000E+00   0.0000000E+00   0.0000000E+00   0.0000000E+00   0.0000000E+00
   0.1362284E+00   0.5515280E-01  -0.1000000E-01   0.0000000E+00   0.0000000E+00   0.0000000E+00   0.0000000E+00
   0.1377961E+00   0.5578750E-01   0.0000000E+00   0.0000000E+00   0.0000000E+00   0.0000000E+00   0.0000000E+00
   0.1280572E+00   0.7212050E-01  -0.1000000E-01   0.0000000E+00   0.0000000E+00   0.0000000E+00   0.0000000E+00
   0.1295308E+00   0.7295040E-01   0.0000000E+00   0.0000000E+00   0.0000000E+00   0.0000000E+00   0.0000000E+00
   0.1324148E+00   0.6376760E-01  -0.1000000E-01   0.0000000E+00   0.0000000E+00   0.0000000E+00   0.0000000E+00
   0.1339387E+00   0.6450140E-01   0.0000000E+00   0.0000000E+00   0.0000000E+00   0.0000000E+00   0.0000000E+00
   0.1231733E+00   0.8017690E-01  -0.1000000E-01   0.0000000E+00   0.0000000E+00   0.0000000E+00   0.0000000E+00
   0.1245908E+00   0.8109960E-01   0.0000000E+00   0.0000000E+00   0.0000000E+00   0.0000000E+00   0.0000000E+00
   0.1280572E+00   0.7212050E-01  -0.1000000E-01   0.0000000E+00   0.0000000E+00   0.0000000E+00   0.0000000E+00
   0.1295308E+00   0.7295040E-01   0.0000000E+00   0.0000000E+00   0.0000000E+00   0.0000000E+00   0.0000000E+00
   0.1177833E+00   0.8790390E-01  -0.1000000E-01   0.0000000E+00   0.0000000E+00   0.0000000E+00   0.0000000E+00
   0.1191387E+00   0.8891550E-01   0.0000000E+00   0.0000000E+00   0.0000000E+00   0.0000000E+00   0.0000000E+00
   0.1231733E+00   0.8017690E-01  -0.1000000E-01   0.0000000E+00   0.0000000E+00   0.0000000E+00   0.0000000E+00
   0.1245908E+00   0.8109960E-01   0.0000000E+00   0.0000000E+00   0.0000000E+00   0.0000000E+00   0.0000000E+00
   0.1119092E+00   0.9526970E-01  -0.1000000E-01   0.0000000E+00   0.0000000E+00   0.0000000E+00   0.0000000E+00
   0.1131971E+00   0.9636610E-01   0.0000000E+00   0.0000000E+00   0.0000000E+00   0.0000000E+00   0.0000000E+00
   0.1177833E+00   0.8790390E-01  -0.1000000E-01   0.0000000E+00   0.0000000E+00   0.0000000E+00   0.0000000E+00
   0.1191387E+00   0.8891550E-01   0.0000000E+00   0.0000000E+00   0.0000000E+00   0.0000000E+00   0.0000000E+00
   0.1055754E+00   0.1022440E+00  -0.1000000E-01   0.0000000E+00   0.0000000E+00   0.0000000E+00   0.0000000E+00
   0.1067903E+00   0.1034206E+00   0.0000000E+00   0.0000000E+00   0.0000000E+00   0.0000000E+00   0.0000000E+00
   0.1119092E+00   0.9526970E-01  -0.1000000E-01   0.0000000E+00   0.0000000E+00   0.0000000E+00   0.0000000E+00
   0.1131971E+00   0.9636610E-01   0.0000000E+00   0.0000000E+00   0.0000000E+00   0.0000000E+00   0.0000000E+00
   0.9880760E-01   0.1087982E+00  -0.1000000E-01   0.0000000E+00   0.0000000E+00   0.0000000E+00   0.0000000E+00
   0.9994470E-01   0.1100502E+00   0.0000000E+00   0.0000000E+00   0.0000000E+00   0.0000000E+00   0.0000000E+00
   0.1055754E+00   0.1022440E+00  -0.1000000E-01   0.0000000E+00   0.0000000E+00   0.0000000E+00   0.0000000E+00
   0.1067903E+00   0.1034206E+00   0.0000000E+00   0.0000000E+00   0.0000000E+00   0.0000000E+00   0.0000000E+00
   0.9163390E-01   0.1149053E+00  -0.1000000E-01   0.0000000E+00   0.0000000E+00   0.0000000E+00   0.0000000E+00
   0.9268840E-01   0.1162276E+00   0.0000000E+00   0.0000000E+00   0.0000000E+00   0.0000000E+00   0.0000000E+00
   0.9880760E-01   0.1087982E+00  -0.1000000E-01   0.0000000E+00   0.0000000E+00   0.0000000E+00   0.0000000E+00
   0.9994470E-01   0.1100502E+00   0.0000000E+00   0.0000000E+00   0.0000000E+00   0.0000000E+00   0.0000000E+00
   0.8408360E-01   0.1205402E+00  -0.1000000E-01   0.0000000E+00   0.0000000E+00   0.0000000E+00   0.0000000E+00
   0.8505130E-01   0.1219274E+00   0.0000000E+00   0.0000000E+00   0.0000000E+00   0.0000000E+00   0.0000000E+00
   0.9163390E-01   0.1149053E+00  -0.1000000E-01   0.0000000E+00   0.0000000E+00   0.0000000E+00   0.0000000E+00
   0.9268840E-01   0.1162276E+00   0.0000000E+00   0.0000000E+00   0.0000000E+00   0.0000000E+00   0.0000000E+00
   0.7618780E-01   0.1256798E+00  -0.1000000E-01   0.0000000E+00   0.0000000E+00   0.0000000E+00   0.0000000E+00
   0.7706460E-01   0.1271261E+00   0.0000000E+00   0.0000000E+00   0.0000000E+00   0.0000000E+00   0.0000000E+00
   0.8408360E-01   0.1205402E+00  -0.1000000E-01   0.0000000E+00   0.0000000E+00   0.0000000E+00   0.0000000E+00
   0.8505130E-01   0.1219274E+00   0.0000000E+00   0.0000000E+00   0.0000000E+00   0.0000000E+00   0.0000000E+00
   0.6797900E-01   0.1303030E+00  -0.1000000E-01   0.0000000E+00   0.0000000E+00   0.0000000E+00   0.0000000E+00
   0.6876130E-01   0.1318025E+00   0.0000000E+00   0.0000000E+00   0.0000000E+00   0.0000000E+00   0.0000000E+00
   0.7618780E-01   0.1256798E+00  -0.1000000E-01   0.0000000E+00   0.0000000E+00   0.0000000E+00   0.0000000E+00
   0.7706460E-01   0.1271261E+00   0.0000000E+00   0.0000000E+00   0.0000000E+00   0.0000000E+00   0.0000000E+00
   0.5949080E-01   0.1343907E+00  -0.1000000E-01   0.0000000E+00   0.0000000E+00   0.0000000E+00   0.0000000E+00
   0.6017540E-01   0.1359372E+00   0.0000000E+00   0.0000000E+00   0.0000000E+00   0.0000000E+00   0.0000000E+00
   0.6797900E-01   0.1303030E+00  -0.1000000E-01   0.0000000E+00   0.0000000E+00   0.0000000E+00   0.0000000E+00
   0.6876130E-01   0.1318025E+00   0.0000000E+00   0.0000000E+00   0.0000000E+00   0.0000000E+00   0.0000000E+00
   0.5075810E-01   0.1379261E+00  -0.1000000E-01   0.0000000E+00   0.0000000E+00   0.0000000E+00   0.0000000E+00
   0.5134220E-01   0.1395134E+00   0.0000000E+00   0.0000000E+00   0.0000000E+00   0.0000000E+00   0.0000000E+00
   0.5949080E-01   0.1343907E+00  -0.1000000E-01   0.0000000E+00   0.0000000E+00   0.0000000E+00   0.0000000E+00
   0.6017540E-01   0.1359372E+00   0.0000000E+00   0.0000000E+00   0.0000000E+00   0.0000000E+00   0.0000000E+00
   0.4181680E-01   0.1408948E+00  -0.1000000E-01   0.0000000E+00   0.0000000E+00   0.0000000E+00   0.0000000E+00
   0.4229810E-01   0.1425162E+00   0.0000000E+00   0.0000000E+00   0.0000000E+00   0.0000000E+00   0.0000000E+00
   0.5075810E-01   0.1379261E+00  -0.1000000E-01   0.0000000E+00   0.0000000E+00   0.0000000E+00   0.0000000E+00
   0.5134220E-01   0.1395134E+00   0.0000000E+00   0.0000000E+00   0.0000000E+00   0.0000000E+00   0.0000000E+00
   0.3270380E-01   0.1432846E+00  -0.1000000E-01   0.0000000E+00   0.0000000E+00   0.0000000E+00   0.0000000E+00
   0.3308010E-01   0.1449335E+00   0.0000000E+00   0.0000000E+00   0.0000000E+00   0.0000000E+00   0.0000000E+00
   0.4181680E-01   0.1408948E+00  -0.1000000E-01   0.0000000E+00   0.0000000E+00   0.0000000E+00   0.0000000E+00
   0.4229810E-01   0.1425162E+00   0.0000000E+00   0.0000000E+00   0.0000000E+00   0.0000000E+00   0.0000000E+00
   0.2345630E-01   0.1450855E+00  -0.1000000E-01   0.0000000E+00   0.0000000E+00   0.0000000E+00   0.0000000E+00
   0.2372620E-01   0.1467551E+00   0.0000000E+00   0.0000000E+00   0.0000000E+00   0.0000000E+00   0.0000000E+00
   0.3270380E-01   0.1432846E+00  -0.1000000E-01   0.0000000E+00   0.0000000E+00   0.0000000E+00   0.0000000E+00
   0.3308010E-01   0.1449335E+00   0.0000000E+00   0.0000000E+00   0.0000000E+00   0.0000000E+00   0.0000000E+00
   0.1411250E-01   0.1462903E+00  -0.1000000E-01   0.0000000E+00   0.0000000E+00   0.0000000E+00   0.0000000E+00
   0.1427480E-01   0.1479737E+00   0.0000000E+00   0.0000000E+00   0.0000000E+00   0.0000000E+00   0.0000000E+00
   0.2345630E-01   0.1450855E+00  -0.1000000E-01   0.0000000E+00   0.0000000E+00   0.0000000E+00   0.0000000E+00
   0.2372620E-01   0.1467551E+00   0.0000000E+00   0.0000000E+00   0.0000000E+00   0.0000000E+00   0.0000000E+00
   0.4710600E-02   0.1468939E+00  -0.1000000E-01   0.0000000E+00   0.0000000E+00   0.0000000E+00   0.0000000E+00
   0.4764800E-02   0.1485843E+00   0.0000000E+00   0.0000000E+00   0.0000000E+00   0.0000000E+00   0.0000000E+00
   0.1411250E-01   0.1462903E+00  -0.1000000E-01   0.0000000E+00   0.0000000E+00   0.0000000E+00   0.0000000E+00
   0.1427480E-01   0.1479737E+00   0.0000000E+00   0.0000000E+00   0.0000000E+00   0.0000000E+00   0.0000000E+00
  -0.4710600E-02   0.1468939E+00  -0.1000000E-01   0.0000000E+00   0.0000000E+00   0.0000000E+00   0.0000000E+00
  -0.4764800E-02   0.1485843E+00   0.0000000E+00   0.0000000E+00   0.0000000E+00   0.0000000E+00   0.0000000E+00
   0.4710600E-02   0.1468939E+00  -0.1000000E-01   0.0000000E+00   0.0000000E+00   0.0000000E+00   0.0000000E+00
   0.4764800E-02   0.1485843E+00   0.0000000E+00   0.0000000E+00   0.0000000E+00   0.0000000E+00   0.0000000E+00
  -0.1411250E-01   0.1462903E+00  -0.1000000E-01   0.0000000E+00   0.0000000E+00   0.0000000E+00   0.0000000E+00
  -0.1427480E-01   0.1479737E+00   0.0000000E+00   0.0000000E+00   0.0000000E+00   0.0000000E+00   0.0000000E+00
  -0.4710600E-02   0.1468939E+00  -0.1000000E-01   0.0000000E+00   0.0000000E+00   0.0000000E+00   0.0000000E+00
  -0.4764800E-02   0.1485843E+00   0.0000000E+00   0.0000000E+00   0.0000000E+00   0.0000000E+00   0.0000000E+00
  -0.2345630E-01   0.1450855E+00  -0.1000000E-01   0.0000000E+00   0.0000000E+00   0.0000000E+00   0.0000000E+00
  -0.2372620E-01   0.1467551E+00   0.0000000E+00   0.0000000E+00   0.0000000E+00   0.0000000E+00   0.0000000E+00
  -0.1411250E-01   0.1462903E+00  -0.1000000E-01   0.0000000E+00   0.0000000E+00   0.0000000E+00   0.0000000E+00
  -0.1427480E-01   0.1479737E+00   0.0000000E+00   0.0000000E+00   0.0000000E+00   0.0000000E+00   0.0000000E+00
  -0.3270380E-01   0.1432846E+00  -0.1000000E-01   0.0000000E+00   0.0000000E+00   0.0000000E+00   0.0000000E+00
  -0.3308010E-01   0.1449335E+00   0.0000000E+00   0.0000000E+00   0.0000000E+00   0.0000000E+00   0.0000000E+00
  -0.2345630E-01   0.1450855E+00  -0.1000000E-01   0.0000000E+00   0.0000000E+00   0.0000000E+00   0.0000000E+00
  -0.2372620E-01   0.1467551E+00   0.0000000E+00   0.0000000E+00   0.0000000E+00   0.0000000E+00   0.0000000E+00
  -0.4181680E-01   0.1408948E+00  -0.1000000E-01   0.0000000E+00   0.0000000E+00   0.0000000E+00   0.0000000E+00
  -0.4229810E-01   0.1425162E+00   0.0000000E+00   0.0000000E+00   0.0000000E+00   0.0000000E+00   0.0000000E+00
  -0.3270380E-01   0.1432846E+00  -0.1000000E-01   0.0000000E+00   0.0000000E+00   0.0000000E+00   0.0000000E+00
  -0.3308010E-01   0.1449335E+00   0.0000000E+00   0.0000000E+00   0.0000000E+00   0.0000000E+00   0.0000000E+00
  -0.5075810E-01   0.1379261E+00  -0.1000000E-01   0.0000000E+00   0.0000000E+00   0.0000000E+00   0.0000000E+00
  -0.5134220E-01   0.1395134E+00   0.0000000E+00   0.0000000E+00   0.0000000E+00   0.0000000E+00   0.0000000E+00
  -0.4181680E-01   0.1408948E+00  -0.1000000E-01   0.0000000E+00   0.0000000E+00   0.0000000E+00   0.0000000E+00
  -0.4229810E-01   0.1425162E+00   0.0000000E+00   0.0000000E+00   0.0000000E+00   0.0000000E+00   0.0000000E+00
  -0.5949080E-01   0.1343907E+00  -0.1000000E-01   0.0000000E+00   0.0000000E+00   0.0000000E+00   0.0000000E+00
  -0.6017540E-01   0.1359372E+00   0.0000000E+00   0.0000000E+00   0.0000000E+00   0.0000000E+00   0.0000000E+00
  -0.5075810E-01   0.1379261E+00  -0.1000000E-01   0.0000000E+00   0.0000000E+00   0.0000000E+00   0.0000000E+00
  -0.5134220E-01   0.1395134E+00   0.0000000E+00   0.0000000E+00   0.0000000E+00   0.0000000E+00   0.0000000E+00
  -0.6797900E-01   0.1303030E+00  -0.1000000E-01   0.0000000E+00   0.0000000E+00   0.0000000E+00   0.0000000E+00
  -0.6876130E-01   0.1318025E+00   0.0000000E+00   0.0000000E+00   0.0000000E+00   0.0000000E+00   0.0000000E+00
  -0.5949080E-01   0.1343907E+00  -0.1000000E-01   0.0000000E+00   0.0000000E+00   0.0000000E+00   0.0000000E+00
  -0.6017540E-01   0.1359372E+00   0.0000000E+00   0.0000000E+00   0.0000000E+00   0.0000000E+00   0.0000000E+00
  -0.7618780E-01   0.1256798E+00  -0.1000000E-01   0.0000000E+00   0.0000000E+00   0.0000000E+00   0.0000000E+00
  -0.7706460E-01   0.1271261E+00   0.0000000E+00   0.0000000E+00   0.0000000E+00   0.0000000E+00   0.0000000E+00
  -0.6797900E-01   0.1303030E+00  -0.1000000E-01   0.0000000E+00   0.0000000E+00   0.0000000E+00   0.0000000E+00
  -0.6876130E-01   0.1318025E+00   0.0000000E+00   0.0000000E+00   0.0000000E+00   0.0000000E+00   0.0000000E+00
  -0.8408360E-01   0.1205402E+00  -0.1000000E-01   0.0000000E+00   0.0000000E+00   0.0000000E+00   0.0000000E+00
  -0.8505130E-01   0.1219274E+00   0.0000000E+00   0.0000000E+00   0.0000000E+00   0.0000000E+00   0.0000000E+00
  -0.7618780E-01   0.1256798E+00  -0.1000000E-01   0.0000000E+00   0.0000000E+00   0.0000000E+00   0.0000000E+00
  -0.7706460E-01   0.1271261E+00   0.0000000E+00   0.0000000E+00   0.0000000E+00   0.0000000E+00   0.0000000E+00
  -0.9163390E-01   0.1149053E+00  -0.1000000E-01   0.0000000E+00   0.0000000E+00   0.0000000E+00   0.0000000E+00
  -0.9268840E-01   0.1162276E+00   0.0000000E+00   0.0000000E+00   0.0000000E+00   0.0000000E+00   0.0000000E+00
  -0.8408360E-01   0.1205402E+00  -0.1000000E-01   0.0000000E+00   0.0000000E+00   0.0000000E+00   0.0000000E+00
  -0.8505130E-01   0.1219274E+00   0.0000000E+00   0.0000000E+00   0.0000000E+00   0.0000000E+00   0.0000000E+00
  -0.9880760E-01   0.1087982E+00  -0.1000000E-01   0.0000000E+00   0.0000000E+00   0.0000000E+00   0.0000000E+00
  -0.9994470E-01   0.1100502E+00   0.0000000E+00   0.0000000E+00   0.0000000E+00   0.0000000E+00   0.0000000E+00
  -0.9163390E-01   0.1149053E+00  -0.1000000E-01   0.0000000E+00   0.0000000E+00   0.0000000E+00   0.0000000E+00
  -0.9268840E-01   0.1162276E+00   0.0000000E+00   0.0000000E+00   0.0000000E+00   0.0000000E+00   0.0000000E+00
  -0.1055754E+00   0.1022440E+00  -0.1000000E-01   0.0000000E+00   0.0000000E+00   0.0000000E+00   0.0000000E+00
  -0.1067903E+00   0.1034206E+00   0.0000000E+00   0.0000000E+00   0.0000000E+00   0.0000000E+00   0.0000000E+00
  -0.9880760E-01   0.1087982E+00  -0.1000000E-01   0.0000000E+00   0.0000000E+00   0.0000000E+00   0.0000000E+00
  -0.9994470E-01   0.1100502E+00   0.0000000E+00   0.0000000E+00   0.0000000E+00   0.0000000E+00   0.0000000E+00
  -0.1119092E+00   0.9526970E-01  -0.1000000E-01   0.0000000E+00   0.0000000E+00   0.0000000E+00   0.0000000E+00
  -0.1131971E+00   0.9636610E-01   0.0000000E+00   0.0000000E+00   0.0000000E+00   0.0000000E+00   0.0000000E+00
  -0.1055754E+00   0.1022440E+00  -0.1000000E-01   0.0000000E+00   0.0000000E+00   0.0000000E+00   0.0000000E+00
  -0.1067903E+00   0.1034206E+00   0.0000000E+00   0.0000000E+00   0.0000000E+00   0.0000000E+00   0.0000000E+00
  -0.1177833E+00   0.8790390E-01  -0.1000000E-01   0.0000000E+00   0.0000000E+00   0.0000000E+00   0.0000000E+00
  -0.1191387E+00   0.8891550E-01   0.0000000E+00   0.0000000E+00   0.0000000E+00   0.0000000E+00   0.0000000E+00
  -0.1119092E+00   0.9526970E-01  -0.1000000E-01   0.0000000E+00   0.0000000E+00   0.0000000E+00   0.0000000E+00
  -0.1131971E+00   0.9636610E-01   0.0000000E+00   0.0000000E+00   0.0000000E+00   0.0000000E+00   0.0000000E+00
  -0.1231733E+00   0.8017690E-01  -0.1000000E-01   0.0000000E+00   0.0000000E+00   0.0000000E+00   0.0000000E+00
  -0.1245908E+00   0.8109960E-01   0.0000000E+00   0.0000000E+00   0.0000000E+00   0.0000000E+00   0.0000000E+00
  -0.1177833E+00   0.8790390E-01  -0.1000000E-01   0.0000000E+00   0.0000000E+00   0.0000000E+00   0.0000000E+00
  -0.1191387E+00   0.8891550E-01   0.0000000E+00   0.0000000E+00   0.0000000E+00   0.0000000E+00   0.0000000E+00
  -0.1280572E+00   0.7212050E-01  -0.1000000E-01   0.0000000E+00   0.0000000E+00   0.0000000E+00   0.0000000E+00
  -0.1295308E+00   0.7295040E-01   0.0000000E+00   0.0000000E+00   0.0000000E+00   0.0000000E+00   0.0000000E+00
  -0.1231733E+00   0.8017690E-01  -0.1000000E-01   0.0000000E+00   0.0000000E+00   0.0000000E+00   0.0000000E+00
  -0.1245908E+00   0.8109960E-01   0.0000000E+00   0.0000000E+00   0.0000000E+00   0.0000000E+00   0.0000000E+00
  -0.1324148E+00   0.6376760E-01  -0.1000000E-01   0.0000000E+00   0.0000000E+00   0.0000000E+00   0.0000000E+00
  -0.1339387E+00   0.6450140E-01   0.0000000E+00   0.0000000E+00   0.0000000E+00   0.0000000E+00   0.0000000E+00
  -0.1280572E+00   0.7212050E-01  -0.1000000E-01   0.0000000E+00   0.0000000E+00   0.0000000E+00   0.0000000E+00
  -0.1295308E+00   0.7295040E-01   0.0000000E+00   0.0000000E+00   0.0000000E+00   0.0000000E+00   0.0000000E+00
  -0.1362284E+00   0.5515280E-01  -0.1000000E-01   0.0000000E+00   0.0000000E+00   0.0000000E+00   0.0000000E+00
  -0.1377961E+00   0.5578750E-01   0.0000000E+00   0.0000000E+00   0.0000000E+00   0.0000000E+00   0.0000000E+00
  -0.1324148E+00   0.6376760E-01  -0.1000000E-01   0.0000000E+00   0.0000000E+00   0.0000000E+00   0.0000000E+00
  -0.1339387E+00   0.6450140E-01   0.0000000E+00   0.0000000E+00   0.0000000E+00   0.0000000E+00   0.0000000E+00
  -0.1394821E+00   0.4631130E-01  -0.1000000E-01   0.0000000E+00   0.0000000E+00   0.0000000E+00   0.0000000E+00
  -0.1410873E+00   0.4684420E-01   0.0000000E+00   0.0000000E+00   0.0000000E+00   0.0000000E+00   0.0000000E+00
  -0.1362284E+00   0.5515280E-01  -0.1000000E-01   0.0000000E+00   0.0000000E+00   0.0000000E+00   0.0000000E+00
  -0.1377961E+00   0.5578750E-01   0.0000000E+00   0.0000000E+00   0.0000000E+00   0.0000000E+00   0.0000000E+00
  -0.1421627E+00   0.3727950E-01  -0.1000000E-01   0.0000000E+00   0.0000000E+00   0.0000000E+00   0.0000000E+00
  -0.1437987E+00   0.3770850E-01   0.0000000E+00   0.0000000E+00   0.0000000E+00   0.0000000E+00   0.0000000E+00
  -0.1394821E+00   0.4631130E-01  -0.1000000E-01   0.0000000E+00   0.0000000E+00   0.0000000E+00   0.0000000E+00
  -0.1410873E+00   0.4684420E-01   0.0000000E+00   0.0000000E+00   0.0000000E+00   0.0000000E+00   0.0000000E+00
  -0.1442591E+00   0.2809450E-01  -0.1000000E-01   0.0000000E+00   0.0000000E+00   0.0000000E+00   0.0000000E+00
  -0.1459193E+00   0.2841780E-01   0.0000000E+00   0.0000000E+00   0.0000000E+00   0.0000000E+00   0.0000000E+00
  -0.1421627E+00   0.3727950E-01  -0.1000000E-01   0.0000000E+00   0.0000000E+00   0.0000000E+00   0.0000000E+00
  -0.1437987E+00   0.3770850E-01   0.0000000E+00   0.0000000E+00   0.0000000E+00   0.0000000E+00   0.0000000E+00
  -0.1457628E+00   0.1879400E-01  -0.1000000E-01   0.0000000E+00   0.0000000E+00   0.0000000E+00   0.0000000E+00
  -0.1474402E+00   0.1901030E-01   0.0000000E+00   0.0000000E+00   0.0000000E+00   0.0000000E+00   0.0000000E+00
  -0.1442591E+00   0.2809450E-01  -0.1000000E-01   0.0000000E+00   0.0000000E+00   0.0000000E+00   0.0000000E+00
  -0.1459193E+00   0.2841780E-01   0.0000000E+00   0.0000000E+00   0.0000000E+00   0.0000000E+00   0.0000000E+00
  -0.1466674E+00   0.9416400E-02  -0.1000000E-01   0.0000000E+00   0.0000000E+00   0.0000000E+00   0.0000000E+00
  -0.1483552E+00   0.9524700E-02   0.0000000E+00   0.0000000E+00   0.0000000E+00   0.0000000E+00   0.0000000E+00
  -0.1457628E+00   0.1879400E-01  -0.1000000E-01   0.0000000E+00   0.0000000E+00   0.0000000E+00   0.0000000E+00
  -0.1474402E+00   0.1901030E-01   0.0000000E+00   0.0000000E+00   0.0000000E+00   0.0000000E+00   0.0000000E+00
  -0.1469694E+00   0.0000000E+00  -0.1000000E-01   0.0000000E+00   0.0000000E+00   0.0000000E+00   0.0000000E+00
  -0.1486607E+00   0.0000000E+00   0.0000000E+00   0.0000000E+00   0.0000000E+00   0.0000000E+00   0.0000000E+00
  -0.1466674E+00   0.9416400E-02  -0.1000000E-01   0.0000000E+00   0.0000000E+00   0.0000000E+00   0.0000000E+00
  -0.1483552E+00   0.9524700E-02   0.0000000E+00   0.0000000E+00   0.0000000E+00   0.0000000E+00   0.0000000E+00
   0.1442713E+00   0.9262500E-02  -0.2000000E-01   0.0000000E+00   0.0000000E+00   0.0000000E+00   0.0000000E+00
   0.1466674E+00   0.9416400E-02  -0.1000000E-01   0.0000000E+00   0.0000000E+00   0.0000000E+00   0.0000000E+00
   0.1445683E+00   0.0000000E+00  -0.2000000E-01   0.0000000E+00   0.0000000E+00   0.0000000E+00   0.0000000E+00
   0.1469694E+00   0.0000000E+00  -0.1000000E-01   0.0000000E+00   0.0000000E+00   0.0000000E+00   0.0000000E+00
   0.1433814E+00   0.1848700E-01  -0.2000000E-01   0.0000000E+00   0.0000000E+00   0.0000000E+00   0.0000000E+00
   0.1457628E+00   0.1879400E-01  -0.1000000E-01   0.0000000E+00   0.0000000E+00   0.0000000E+00   0.0000000E+00
   0.1442713E+00   0.9262500E-02  -0.2000000E-01   0.0000000E+00   0.0000000E+00   0.0000000E+00   0.0000000E+00
   0.1466674E+00   0.9416400E-02  -0.1000000E-01   0.0000000E+00   0.0000000E+00   0.0000000E+00   0.0000000E+00
   0.1419024E+00   0.2763550E-01  -0.2000000E-01   0.0000000E+00   0.0000000E+00   0.0000000E+00   0.0000000E+00
   0.1442591E+00   0.2809450E-01  -0.1000000E-01   0.0000000E+00   0.0000000E+00   0.0000000E+00   0.0000000E+00
   0.1433814E+00   0.1848700E-01  -0.2000000E-01   0.0000000E+00   0.0000000E+00   0.0000000E+00   0.0000000E+00
   0.1457628E+00   0.1879400E-01  -0.1000000E-01   0.0000000E+00   0.0000000E+00   0.0000000E+00   0.0000000E+00
   0.1398402E+00   0.3667040E-01  -0.2000000E-01   0.0000000E+00   0.0000000E+00   0.0000000E+00   0.0000000E+00
   0.1421627E+00   0.3727950E-01  -0.1000000E-01   0.0000000E+00   0.0000000E+00   0.0000000E+00   0.0000000E+00
   0.1419024E+00   0.2763550E-01  -0.2000000E-01   0.0000000E+00   0.0000000E+00   0.0000000E+00   0.0000000E+00
   0.1442591E+00   0.2809450E-01  -0.1000000E-01   0.0000000E+00   0.0000000E+00   0.0000000E+00   0.0000000E+00
   0.1372034E+00   0.4555470E-01  -0.2000000E-01   0.0000000E+00   0.0000000E+00   0.0000000E+00   0.0000000E+00
   0.1394821E+00   0.4631130E-01  -0.1000000E-01   0.0000000E+00   0.0000000E+00   0.0000000E+00   0.0000000E+00
   0.1398402E+00   0.3667040E-01  -0.2000000E-01   0.0000000E+00   0.0000000E+00   0.0000000E+00   0.0000000E+00
   0.1421627E+00   0.3727950E-01  -0.1000000E-01   0.0000000E+00   0.0000000E+00   0.0000000E+00   0.0000000E+00
   0.1340028E+00   0.5425170E-01  -0.2000000E-01   0.0000000E+00   0.0000000E+00   0.0000000E+00   0.0000000E+00
   0.1362284E+00   0.5515280E-01  -0.1000000E-01   0.0000000E+00   0.0000000E+00   0.0000000E+00   0.0000000E+00
   0.1372034E+00   0.4555470E-01  -0.2000000E-01   0.0000000E+00   0.0000000E+00   0.0000000E+00   0.0000000E+00
   0.1394821E+00   0.4631130E-01  -0.1000000E-01   0.0000000E+00   0.0000000E+00   0.0000000E+00   0.0000000E+00
   0.1302516E+00   0.6272580E-01  -0.2000000E-01   0.0000000E+00   0.0000000E+00   0.0000000E+00   0.0000000E+00
   0.1324148E+00   0.6376760E-01  -0.1000000E-01   0.0000000E+00   0.0000000E+00   0.0000000E+00   0.0000000E+00
   0.1340028E+00   0.5425170E-01  -0.2000000E-01   0.0000000E+00   0.0000000E+00   0.0000000E+00   0.0000000E+00
   0.1362284E+00   0.5515280E-01  -0.1000000E-01   0.0000000E+00   0.0000000E+00   0.0000000E+00   0.0000000E+00
   0.1259651E+00   0.7094220E-01  -0.2000000E-01   0.0000000E+00   0.0000000E+00   0.0000000E+00   0.0000000E+00
   0.1280572E+00   0.7212050E-01  -0.1000000E-01   0.0000000E+00   0.0000000E+00   0.0000000E+00   0.0000000E+00
   0.1302516E+00   0.6272580E-01  -0.2000000E-01   0.0000000E+00   0.0000000E+00   0.0000000E+00   0.0000000E+00
   0.1324148E+00   0.6376760E-01  -0.1000000E-01   0.0000000E+00   0.0000000E+00   0.0000000E+00   0.0000000E+00
   0.1211610E+00   0.7886710E-01  -0.2000000E-01   0.0000000E+00   0.0000000E+00   0.0000000E+00   0.0000000E+00
   0.1231733E+00   0.8017690E-01  -0.1000000E-01   0.0000000E+00   0.0000000E+00   0.0000000E+00   0.0000000E+00
   0.1259651E+00   0.7094220E-01  -0.2000000E-01   0.0000000E+00   0.0000000E+00   0.0000000E+00   0.0000000E+00
   0.1280572E+00   0.7212050E-01  -0.1000000E-01   0.0000000E+00   0.0000000E+00   0.0000000E+00   0.0000000E+00
   0.1158590E+00   0.8646780E-01  -0.2000000E-01   0.0000000E+00   0.0000000E+00   0.0000000E+00   0.0000000E+00
   0.1177833E+00   0.8790390E-01  -0.1000000E-01   0.0000000E+00   0.0000000E+00   0.0000000E+00   0.0000000E+00
   0.1211610E+00   0.7886710E-01  -0.2000000E-01   0.0000000E+00   0.0000000E+00   0.0000000E+00   0.0000000E+00
   0.1231733E+00   0.8017690E-01  -0.1000000E-01   0.0000000E+00   0.0000000E+00   0.0000000E+00   0.0000000E+00
   0.1100810E+00   0.9371330E-01  -0.2000000E-01   0.0000000E+00   0.0000000E+00   0.0000000E+00   0.0000000E+00
   0.1119092E+00   0.9526970E-01  -0.1000000E-01   0.0000000E+00   0.0000000E+00   0.0000000E+00   0.0000000E+00
   0.1158590E+00   0.8646780E-01  -0.2000000E-01   0.0000000E+00   0.0000000E+00   0.0000000E+00   0.0000000E+00
   0.1177833E+00   0.8790390E-01  -0.1000000E-01   0.0000000E+00   0.0000000E+00   0.0000000E+00   0.0000000E+00
   0.1038506E+00   0.1005737E+00  -0.2000000E-01   0.0000000E+00   0.0000000E+00   0.0000000E+00   0.0000000E+00
   0.1055754E+00   0.1022440E+00  -0.1000000E-01   0.0000000E+00   0.0000000E+00   0.0000000E+00   0.0000000E+00
   0.1100810E+00   0.9371330E-01  -0.2000000E-01   0.0000000E+00   0.0000000E+00   0.0000000E+00   0.0000000E+00
   0.1119092E+00   0.9526970E-01  -0.1000000E-01   0.0000000E+00   0.0000000E+00   0.0000000E+00   0.0000000E+00
   0.9719340E-01   0.1070207E+00  -0.2000000E-01   0.0000000E+00   0.0000000E+00   0.0000000E+00   0.0000000E+00
   0.9880760E-01   0.1087982E+00  -0.1000000E-01   0.0000000E+00   0.0000000E+00   0.0000000E+00   0.0000000E+00
   0.1038506E+00   0.1005737E+00  -0.2000000E-01   0.0000000E+00   0.0000000E+00   0.0000000E+00   0.0000000E+00
   0.1055754E+00   0.1022440E+00  -0.1000000E-01   0.0000000E+00   0.0000000E+00   0.0000000E+00   0.0000000E+00
   0.9013690E-01   0.1130281E+00  -0.2000000E-01   0.0000000E+00   0.0000000E+00   0.0000000E+00   0.0000000E+00
   0.9163390E-01   0.1149053E+00  -0.1000000E-01   0.0000000E+00   0.0000000E+00   0.0000000E+00   0.0000000E+00
   0.9719340E-01   0.1070207E+00  -0.2000000E-01   0.0000000E+00   0.0000000E+00   0.0000000E+00   0.0000000E+00
   0.9880760E-01   0.1087982E+00  -0.1000000E-01   0.0000000E+00   0.0000000E+00   0.0000000E+00   0.0000000E+00
   0.8271000E-01   0.1185709E+00  -0.2000000E-01   0.0000000E+00   0.0000000E+00   0.0000000E+00   0.0000000E+00
   0.8408360E-01   0.1205402E+00  -0.1000000E-01   0.0000000E+00   0.0000000E+00   0.0000000E+00   0.0000000E+00
   0.9013690E-01   0.1130281E+00  -0.2000000E-01   0.0000000E+00   0.0000000E+00   0.0000000E+00   0.0000000E+00
   0.9163390E-01   0.1149053E+00  -0.1000000E-01   0.0000000E+00   0.0000000E+00   0.0000000E+00   0.0000000E+00
   0.7494310E-01   0.1236266E+00  -0.2000000E-01   0.0000000E+00   0.0000000E+00   0.0000000E+00   0.0000000E+00
   0.7618780E-01   0.1256798E+00  -0.1000000E-01   0.0000000E+00   0.0000000E+00   0.0000000E+00   0.0000000E+00
   0.8271000E-01   0.1185709E+00  -0.2000000E-01   0.0000000E+00   0.0000000E+00   0.0000000E+00   0.0000000E+00
   0.8408360E-01   0.1205402E+00  -0.1000000E-01   0.0000000E+00   0.0000000E+00   0.0000000E+00   0.0000000E+00
   0.6686840E-01   0.1281742E+00  -0.2000000E-01   0.0000000E+00   0.0000000E+00   0.0000000E+00   0.0000000E+00
   0.6797900E-01   0.1303030E+00  -0.1000000E-01   0.0000000E+00   0.0000000E+00   0.0000000E+00   0.0000000E+00