VARIABLES="X" "Y" "Z" "NX" "NY" "NZ" "A"
 ZONE N=         196 , E=          49  , F=FEPOINT,ET=QUADRILATERAL
   0.0000000E+00   0.0000000E+00  -0.1000000E-01   0.0000000E+00   0.0000000E+00   0.0000000E+00   0.0000000E+00
   0.5374100E-01   0.3450300E-02   0.0000000E+00   0.0000000E+00   0.0000000E+00   0.0000000E+00   0.0000000E+00
   0.0000000E+00   0.0000000E+00  -0.1000000E-01   0.0000000E+00   0.0000000E+00   0.0000000E+00   0.0000000E+00
   0.5385160E-01   0.0000000E+00   0.0000000E+00   0.0000000E+00   0.0000000E+00   0.0000000E+00   0.0000000E+00
   0.0000000E+00   0.0000000E+00  -0.1000000E-01   0.0000000E+00   0.0000000E+00   0.0000000E+00   0.0000000E+00
   0.5340950E-01   0.6886400E-02   0.0000000E+00   0.0000000E+00   0.0000000E+00   0.0000000E+00   0.0000000E+00
   0.0000000E+00   0.0000000E+00  -0.1000000E-01   0.0000000E+00   0.0000000E+00   0.0000000E+00   0.0000000E+00
   0.5374100E-01   0.3450300E-02   0.0000000E+00   0.0000000E+00   0.0000000E+00   0.0000000E+00   0.0000000E+00
   0.0000000E+00   0.0000000E+00  -0.1000000E-01   0.0000000E+00   0.0000000E+00   0.0000000E+00   0.0000000E+00
   0.5285860E-01   0.1029420E-01   0.0000000E+00   0.0000000E+00   0.0000000E+00   0.0000000E+00   0.0000000E+00
   0.0000000E+00   0.0000000E+00  -0.1000000E-01   0.0000000E+00   0.0000000E+00   0.0000000E+00   0.0000000E+00
   0.5340950E-01   0.6886400E-02   0.0000000E+00   0.0000000E+00   0.0000000E+00   0.0000000E+00   0.0000000E+00
   0.0000000E+00   0.0000000E+00  -0.1000000E-01   0.0000000E+00   0.0000000E+00   0.0000000E+00   0.0000000E+00
   0.5209040E-01   0.1365970E-01   0.0000000E+00   0.0000000E+00   0.0000000E+00   0.0000000E+00   0.0000000E+00
   0.0000000E+00   0.0000000E+00  -0.1000000E-01   0.0000000E+00   0.0000000E+00   0.0000000E+00   0.0000000E+00
   0.5285860E-01   0.1029420E-01   0.0000000E+00   0.0000000E+00   0.0000000E+00   0.0000000E+00   0.0000000E+00
   0.0000000E+00   0.0000000E+00  -0.1000000E-01   0.0000000E+00   0.0000000E+00   0.0000000E+00   0.0000000E+00
   0.5110820E-01   0.1696910E-01   0.0000000E+00   0.0000000E+00   0.0000000E+00   0.0000000E+00   0.0000000E+00
   0.0000000E+00   0.0000000E+00  -0.1000000E-01   0.0000000E+00   0.0000000E+00   0.0000000E+00   0.0000000E+00
   0.5209040E-01   0.1365970E-01   0.0000000E+00   0.0000000E+00   0.0000000E+00   0.0000000E+00   0.0000000E+00
   0.0000000E+00   0.0000000E+00  -0.1000000E-01   0.0000000E+00   0.0000000E+00   0.0000000E+00   0.0000000E+00
   0.4991600E-01   0.2020870E-01   0.0000000E+00   0.0000000E+00   0.0000000E+00   0.0000000E+00   0.0000000E+00
   0.0000000E+00   0.0000000E+00  -0.1000000E-01   0.0000000E+00   0.0000000E+00   0.0000000E+00   0.0000000E+00
   0.5110820E-01   0.1696910E-01   0.0000000E+00   0.0000000E+00   0.0000000E+00   0.0000000E+00   0.0000000E+00
   0.0000000E+00   0.0000000E+00  -0.1000000E-01   0.0000000E+00   0.0000000E+00   0.0000000E+00   0.0000000E+00
   0.4851870E-01   0.2336540E-01   0.0000000E+00   0.0000000E+00   0.0000000E+00   0.0000000E+00   0.0000000E+00
   0.0000000E+00   0.0000000E+00  -0.1000000E-01   0.0000000E+00   0.0000000E+00   0.0000000E+00   0.0000000E+00
   0.4991600E-01   0.2020870E-01   0.0000000E+00   0.0000000E+00   0.0000000E+00   0.0000000E+00   0.0000000E+00
   0.0000000E+00   0.0000000E+00  -0.1000000E-01   0.0000000E+00   0.0000000E+00   0.0000000E+00   0.0000000E+00
   0.4692190E-01   0.2642600E-01   0.0000000E+00   0.0000000E+00   0.0000000E+00   0.0000000E+00   0.0000000E+00
   0.0000000E+00   0.0000000E+00  -0.1000000E-01   0.0000000E+00   0.0000000E+00   0.0000000E+00   0.0000000E+00
   0.4851870E-01   0.2336540E-01   0.0000000E+00   0.0000000E+00   0.0000000E+00   0.0000000E+00   0.0000000E+00
   0.0000000E+00   0.0000000E+00  -0.1000000E-01   0.0000000E+00   0.0000000E+00   0.0000000E+00   0.0000000E+00
   0.4513240E-01   0.2937800E-01   0.0000000E+00   0.0000000E+00   0.0000000E+00   0.0000000E+00   0.0000000E+00
   0.0000000E+00   0.0000000E+00  -0.1000000E-01   0.0000000E+00   0.0000000E+00   0.0000000E+00   0.0000000E+00
   0.4692190E-01   0.2642600E-01   0.0000000E+00   0.0000000E+00   0.0000000E+00   0.0000000E+00   0.0000000E+00
   0.0000000E+00   0.0000000E+00  -0.1000000E-01   0.0000000E+00   0.0000000E+00   0.0000000E+00   0.0000000E+00
   0.4315740E-01   0.3220920E-01   0.0000000E+00   0.0000000E+00   0.0000000E+00   0.0000000E+00   0.0000000E+00
   0.0000000E+00   0.0000000E+00  -0.1000000E-01   0.0000000E+00   0.0000000E+00   0.0000000E+00   0.0000000E+00
   0.4513240E-01   0.2937800E-01   0.0000000E+00   0.0000000E+00   0.0000000E+00   0.0000000E+00   0.0000000E+00
   0.0000000E+00   0.0000000E+00  -0.1000000E-01   0.0000000E+00   0.0000000E+00   0.0000000E+00   0.0000000E+00
   0.4100510E-01   0.3490820E-01   0.0000000E+00   0.0000000E+00   0.0000000E+00   0.0000000E+00   0.0000000E+00
   0.0000000E+00   0.0000000E+00  -0.1000000E-01   0.0000000E+00   0.0000000E+00   0.0000000E+00   0.0000000E+00
   0.4315740E-01   0.3220920E-01   0.0000000E+00   0.0000000E+00   0.0000000E+00   0.0000000E+00   0.0000000E+00
   0.0000000E+00   0.0000000E+00  -0.1000000E-01   0.0000000E+00   0.0000000E+00   0.0000000E+00   0.0000000E+00
   0.3868430E-01   0.3746370E-01   0.0000000E+00   0.0000000E+00   0.0000000E+00   0.0000000E+00   0.0000000E+00
   0.0000000E+00   0.0000000E+00  -0.1000000E-01   0.0000000E+00   0.0000000E+00   0.0000000E+00   0.0000000E+00
   0.4100510E-01   0.3490820E-01   0.0000000E+00   0.0000000E+00   0.0000000E+00   0.0000000E+00   0.0000000E+00
   0.0000000E+00   0.0000000E+00  -0.1000000E-01   0.0000000E+00   0.0000000E+00   0.0000000E+00   0.0000000E+00
   0.3620450E-01   0.3986520E-01   0.0000000E+00   0.0000000E+00   0.0000000E+00   0.0000000E+00   0.0000000E+00
   0.0000000E+00   0.0000000E+00  -0.1000000E-01   0.0000000E+00   0.0000000E+00   0.0000000E+00   0.0000000E+00
   0.3868430E-01   0.3746370E-01   0.0000000E+00   0.0000000E+00   0.0000000E+00   0.0000000E+00   0.0000000E+00
   0.0000000E+00   0.0000000E+00  -0.1000000E-01   0.0000000E+00   0.0000000E+00   0.0000000E+00   0.0000000E+00
   0.3357590E-01   0.4210290E-01   0.0000000E+00   0.0000000E+00   0.0000000E+00   0.0000000E+00   0.0000000E+00
   0.0000000E+00   0.0000000E+00  -0.1000000E-01   0.0000000E+00   0.0000000E+00   0.0000000E+00   0.0000000E+00
   0.3620450E-01   0.3986520E-01   0.0000000E+00   0.0000000E+00   0.0000000E+00   0.0000000E+00   0.0000000E+00
   0.0000000E+00   0.0000000E+00  -0.1000000E-01   0.0000000E+00   0.0000000E+00   0.0000000E+00   0.0000000E+00
   0.3080940E-01   0.4416760E-01   0.0000000E+00   0.0000000E+00   0.0000000E+00   0.0000000E+00   0.0000000E+00
   0.0000000E+00   0.0000000E+00  -0.1000000E-01   0.0000000E+00   0.0000000E+00   0.0000000E+00   0.0000000E+00
   0.3357590E-01   0.4210290E-01   0.0000000E+00   0.0000000E+00   0.0000000E+00   0.0000000E+00   0.0000000E+00
   0.0000000E+00   0.0000000E+00  -0.1000000E-01   0.0000000E+00   0.0000000E+00   0.0000000E+00   0.0000000E+00
   0.2791630E-01   0.4605090E-01   0.0000000E+00   0.0000000E+00   0.0000000E+00   0.0000000E+00   0.0000000E+00
   0.0000000E+00   0.0000000E+00  -0.1000000E-01   0.0000000E+00   0.0000000E+00   0.0000000E+00   0.0000000E+00
   0.3080940E-01   0.4416760E-01   0.0000000E+00   0.0000000E+00   0.0000000E+00   0.0000000E+00   0.0000000E+00
   0.0000000E+00   0.0000000E+00  -0.1000000E-01   0.0000000E+00   0.0000000E+00   0.0000000E+00   0.0000000E+00
   0.2490840E-01   0.4774480E-01   0.0000000E+00   0.0000000E+00   0.0000000E+00   0.0000000E+00   0.0000000E+00
   0.0000000E+00   0.0000000E+00  -0.1000000E-01   0.0000000E+00   0.0000000E+00   0.0000000E+00   0.0000000E+00
   0.2791630E-01   0.4605090E-01   0.0000000E+00   0.0000000E+00   0.0000000E+00   0.0000000E+00   0.0000000E+00
   0.0000000E+00   0.0000000E+00  -0.1000000E-01   0.0000000E+00   0.0000000E+00   0.0000000E+00   0.0000000E+00
   0.2179820E-01   0.4924260E-01   0.0000000E+00   0.0000000E+00   0.0000000E+00   0.0000000E+00   0.0000000E+00
   0.0000000E+00   0.0000000E+00  -0.1000000E-01   0.0000000E+00   0.0000000E+00   0.0000000E+00   0.0000000E+00
   0.2490840E-01   0.4774480E-01   0.0000000E+00   0.0000000E+00   0.0000000E+00   0.0000000E+00   0.0000000E+00
   0.0000000E+00   0.0000000E+00  -0.1000000E-01   0.0000000E+00   0.0000000E+00   0.0000000E+00   0.0000000E+00
   0.1859850E-01   0.5053810E-01   0.0000000E+00   0.0000000E+00   0.0000000E+00   0.0000000E+00   0.0000000E+00
   0.0000000E+00   0.0000000E+00  -0.1000000E-01   0.0000000E+00   0.0000000E+00   0.0000000E+00   0.0000000E+00
   0.2179820E-01   0.4924260E-01   0.0000000E+00   0.0000000E+00   0.0000000E+00   0.0000000E+00   0.0000000E+00
   0.0000000E+00   0.0000000E+00  -0.1000000E-01   0.0000000E+00   0.0000000E+00   0.0000000E+00   0.0000000E+00
   0.1532230E-01   0.5162580E-01   0.0000000E+00   0.0000000E+00   0.0000000E+00   0.0000000E+00   0.0000000E+00
   0.0000000E+00   0.0000000E+00  -0.1000000E-01   0.0000000E+00   0.0000000E+00   0.0000000E+00   0.0000000E+00
   0.1859850E-01   0.5053810E-01   0.0000000E+00   0.0000000E+00   0.0000000E+00   0.0000000E+00   0.0000000E+00
   0.0000000E+00   0.0000000E+00  -0.1000000E-01   0.0000000E+00   0.0000000E+00   0.0000000E+00   0.0000000E+00
   0.1198310E-01   0.5250150E-01   0.0000000E+00   0.0000000E+00   0.0000000E+00   0.0000000E+00   0.0000000E+00
   0.0000000E+00   0.0000000E+00  -0.1000000E-01   0.0000000E+00   0.0000000E+00   0.0000000E+00   0.0000000E+00
   0.1532230E-01   0.5162580E-01   0.0000000E+00   0.0000000E+00   0.0000000E+00   0.0000000E+00   0.0000000E+00
   0.0000000E+00   0.0000000E+00  -0.1000000E-01   0.0000000E+00   0.0000000E+00   0.0000000E+00   0.0000000E+00
   0.8594700E-02   0.5316140E-01   0.0000000E+00   0.0000000E+00   0.0000000E+00   0.0000000E+00   0.0000000E+00
   0.0000000E+00   0.0000000E+00  -0.1000000E-01   0.0000000E+00   0.0000000E+00   0.0000000E+00   0.0000000E+00
   0.1198310E-01   0.5250150E-01   0.0000000E+00   0.0000000E+00   0.0000000E+00   0.0000000E+00   0.0000000E+00
   0.0000000E+00   0.0000000E+00  -0.1000000E-01   0.0000000E+00   0.0000000E+00   0.0000000E+00   0.0000000E+00
   0.5171000E-02   0.5360280E-01   0.0000000E+00   0.0000000E+00   0.0000000E+00   0.0000000E+00   0.0000000E+00
   0.0000000E+00   0.0000000E+00  -0.1000000E-01   0.0000000E+00   0.0000000E+00   0.0000000E+00   0.0000000E+00
   0.8594700E-02   0.5316140E-01   0.0000000E+00   0.0000000E+00   0.0000000E+00   0.0000000E+00   0.0000000E+00
   0.0000000E+00   0.0000000E+00  -0.1000000E-01   0.0000000E+00   0.0000000E+00   0.0000000E+00   0.0000000E+00
   0.1726000E-02   0.5382400E-01   0.0000000E+00   0.0000000E+00   0.0000000E+00   0.0000000E+00   0.0000000E+00
   0.0000000E+00   0.0000000E+00  -0.1000000E-01   0.0000000E+00   0.0000000E+00   0.0000000E+00   0.0000000E+00
   0.5171000E-02   0.5360280E-01   0.0000000E+00   0.0000000E+00   0.0000000E+00   0.0000000E+00   0.0000000E+00
   0.0000000E+00   0.0000000E+00  -0.1000000E-01   0.0000000E+00   0.0000000E+00   0.0000000E+00   0.0000000E+00
  -0.1726000E-02   0.5382400E-01   0.0000000E+00   0.0000000E+00   0.0000000E+00   0.0000000E+00   0.0000000E+00
   0.0000000E+00   0.0000000E+00  -0.1000000E-01   0.0000000E+00   0.0000000E+00   0.0000000E+00   0.0000000E+00
   0.1726000E-02   0.5382400E-01   0.0000000E+00   0.0000000E+00   0.0000000E+00   0.0000000E+00   0.0000000E+00
   0.0000000E+00   0.0000000E+00  -0.1000000E-01   0.0000000E+00   0.0000000E+00   0.0000000E+00   0.0000000E+00
  -0.5171000E-02   0.5360280E-01   0.0000000E+00   0.0000000E+00   0.0000000E+00   0.0000000E+00   0.0000000E+00
   0.0000000E+00   0.0000000E+00  -0.1000000E-01   0.0000000E+00   0.0000000E+00   0.0000000E+00   0.0000000E+00
  -0.1726000E-02   0.5382400E-01   0.0000000E+00   0.0000000E+00   0.0000000E+00   0.0000000E+00   0.0000000E+00
   0.0000000E+00   0.0000000E+00  -0.1000000E-01   0.0000000E+00   0.0000000E+00   0.0000000E+00   0.0000000E+00
  -0.8594700E-02   0.5316140E-01   0.0000000E+00   0.0000000E+00   0.0000000E+00   0.0000000E+00   0.0000000E+00
   0.0000000E+00   0.0000000E+00  -0.1000000E-01   0.0000000E+00   0.0000000E+00   0.0000000E+00   0.0000000E+00
  -0.5171000E-02   0.5360280E-01   0.0000000E+00   0.0000000E+00   0.0000000E+00   0.0000000E+00   0.0000000E+00
   0.0000000E+00   0.0000000E+00  -0.1000000E-01   0.0000000E+00   0.0000000E+00   0.0000000E+00   0.0000000E+00
  -0.1198310E-01   0.5250150E-01   0.0000000E+00   0.0000000E+00   0.0000000E+00   0.0000000E+00   0.0000000E+00
   0.0000000E+00   0.0000000E+00  -0.1000000E-01   0.0000000E+00   0.0000000E+00   0.0000000E+00   0.0000000E+00
  -0.8594700E-02   0.5316140E-01   0.0000000E+00   0.0000000E+00   0.0000000E+00   0.0000000E+00   0.0000000E+00
   0.0000000E+00   0.0000000E+00  -0.1000000E-01   0.0000000E+00   0.0000000E+00   0.0000000E+00   0.0000000E+00
  -0.1532230E-01   0.5162580E-01   0.0000000E+00   0.0000000E+00   0.0000000E+00   0.0000000E+00   0.0000000E+00
   0.0000000E+00   0.0000000E+00  -0.1000000E-01   0.0000000E+00   0.0000000E+00   0.0000000E+00   0.0000000E+00
  -0.1198310E-01   0.5250150E-01   0.0000000E+00   0.0000000E+00   0.0000000E+00   0.0000000E+00   0.0000000E+00
   0.0000000E+00   0.0000000E+00  -0.1000000E-01   0.0000000E+00   0.0000000E+00   0.0000000E+00   0.0000000E+00
  -0.1859850E-01   0.5053810E-01   0.0000000E+00   0.0000000E+00   0.0000000E+00   0.0000000E+00   0.0000000E+00
   0.0000000E+00   0.0000000E+00  -0.1000000E-01   0.0000000E+00   0.0000000E+00   0.0000000E+00   0.0000000E+00
  -0.1532230E-01   0.5162580E-01   0.0000000E+00   0.0000000E+00   0.0000000E+00   0.0000000E+00   0.0000000E+00
   0.0000000E+00   0.0000000E+00  -0.1000000E-01   0.0000000E+00   0.0000000E+00   0.0000000E+00   0.0000000E+00
  -0.2179820E-01   0.4924260E-01   0.0000000E+00   0.0000000E+00   0.0000000E+00   0.0000000E+00   0.0000000E+00
   0.0000000E+00   0.0000000E+00  -0.1000000E-01   0.0000000E+00   0.0000000E+00   0.0000000E+00   0.0000000E+00
  -0.1859850E-01   0.5053810E-01   0.0000000E+00   0.0000000E+00   0.0000000E+00   0.0000000E+00   0.0000000E+00
   0.0000000E+00   0.0000000E+00  -0.1000000E-01   0.0000000E+00   0.0000000E+00   0.0000000E+00   0.0000000E+00
  -0.2490840E-01   0.4774480E-01   0.0000000E+00   0.0000000E+00   0.0000000E+00   0.0000000E+00   0.0000000E+00
   0.0000000E+00   0.0000000E+00  -0.1000000E-01   0.0000000E+00   0.0000000E+00   0.0000000E+00   0.0000000E+00
  -0.2179820E-01   0.4924260E-01   0.0000000E+00   0.0000000E+00   0.0000000E+00   0.0000000E+00   0.0000000E+00
   0.0000000E+00   0.0000000E+00  -0.1000000E-01   0.0000000E+00   0.0000000E+00   0.0000000E+00   0.0000000E+00
  -0.2791630E-01   0.4605090E-01   0.0000000E+00   0.0000000E+00   0.0000000E+00   0.0000000E+00   0.0000000E+00
   0.0000000E+00   0.0000000E+00  -0.1000000E-01   0.0000000E+00   0.0000000E+00   0.0000000E+00   0.0000000E+00
  -0.2490840E-01   0.4774480E-01   0.0000000E+00   0.0000000E+00   0.0000000E+00   0.0000000E+00   0.0000000E+00
   0.0000000E+00   0.0000000E+00  -0.1000000E-01   0.0000000E+00   0.0000000E+00   0.0000000E+00   0.0000000E+00
  -0.3080940E-01   0.4416760E-01   0.0000000E+00   0.0000000E+00   0.0000000E+00   0.0000000E+00   0.0000000E+00
   0.0000000E+00   0.0000000E+00  -0.1000000E-01   0.0000000E+00   0.0000000E+00   0.0000000E+00   0.0000000E+00
  -0.2791630E-01   0.4605090E-01   0.0000000E+00   0.0000000E+00   0.0000000E+00   0.0000000E+00   0.0000000E+00
   0.0000000E+00   0.0000000E+00  -0.1000000E-01   0.0000000E+00   0.0000000E+00   0.0000000E+00   0.0000000E+00
  -0.3357590E-01   0.4210290E-01   0.0000000E+00   0.0000000E+00   0.0000000E+00   0.0000000E+00   0.0000000E+00
   0.0000000E+00   0.0000000E+00  -0.1000000E-01   0.0000000E+00   0.0000000E+00   0.0000000E+00   0.0000000E+00
  -0.3080940E-01   0.4416760E-01   0.0000000E+00   0.0000000E+00   0.0000000E+00   0.0000000E+00   0.0000000E+00
   0.0000000E+00   0.0000000E+00  -0.1000000E-01   0.0000000E+00   0.0000000E+00   0.0000000E+00   0.0000000E+00
  -0.3620450E-01   0.3986520E-01   0.0000000E+00   0.0000000E+00   0.0000000E+00   0.0000000E+00   0.0000000E+00
   0.0000000E+00   0.0000000E+00  -0.1000000E-01   0.0000000E+00   0.0000000E+00   0.0000000E+00   0.0000000E+00
  -0.3357590E-01   0.4210290E-01   0.0000000E+00   0.0000000E+00   0.0000000E+00   0.0000000E+00   0.0000000E+00
   0.0000000E+00   0.0000000E+00  -0.1000000E-01   0.0000000E+00   0.0000000E+00   0.0000000E+00   0.0000000E+00
  -0.3868430E-01   0.3746370E-01   0.0000000E+00   0.0000000E+00   0.0000000E+00   0.0000000E+00   0.0000000E+00
   0.0000000E+00   0.0000000E+00  -0.1000000E-01   0.0000000E+00   0.0000000E+00   0.0000000E+00   0.0000000E+00
  -0.3620450E-01   0.3986520E-01   0.0000000E+00   0.0000000E+00   0.0000000E+00   0.0000000E+00   0.0000000E+00
   0.0000000E+00   0.0000000E+00  -0.1000000E-01   0.0000000E+00   0.0000000E+00   0.0000000E+00   0.0000000E+00
  -0.4100510E-01   0.3490820E-01   0.0000000E+00   0.0000000E+00   0.0000000E+00   0.0000000E+00   0.0000000E+00
   0.0000000E+00   0.0000000E+00  -0.1000000E-01   0.0000000E+00   0.0000000E+00   0.0000000E+00   0.0000000E+00
  -0.3868430E-01   0.3746370E-01   0.0000000E+00   0.0000000E+00   0.0000000E+00   0.0000000E+00   0.0000000E+00
   0.0000000E+00   0.0000000E+00  -0.1000000E-01   0.0000000E+00   0.0000000E+00   0.0000000E+00   0.0000000E+00
  -0.4315740E-01   0.3220920E-01   0.0000000E+00   0.0000000E+00   0.0000000E+00   0.0000000E+00   0.0000000E+00
   0.0000000E+00   0.0000000E+00  -0.1000000E-01   0.0000000E+00   0.0000000E+00   0.0000000E+00   0.0000000E+00
  -0.4100510E-01   0.3490820E-01   0.0000000E+00   0.0000000E+00   0.0000000E+00   0.0000000E+00   0.0000000E+00
   0.0000000E+00   0.0000000E+00  -0.1000000E-01   0.0000000E+00   0.0000000E+00   0.0000000E+00   0.0000000E+00
  -0.4513240E-01   0.2937800E-01   0.0000000E+00   0.0000000E+00   0.0000000E+00   0.0000000E+00   0.0000000E+00
   0.0000000E+00   0.0000000E+00  -0.1000000E-01   0.0000000E+00   0.0000000E+00   0.0000000E+00   0.0000000E+00
  -0.4315740E-01   0.3220920E-01   0.0000000E+00   0.0000000E+00   0.0000000E+00   0.0000000E+00   0.0000000E+00
   0.0000000E+00   0.0000000E+00  -0.1000000E-01   0.0000000E+00   0.0000000E+00   0.0000000E+00   0.0000000E+00
  -0.4692190E-01   0.2642600E-01   0.0000000E+00   0.0000000E+00   0.0000000E+00   0.0000000E+00   0.0000000E+00
   0.0000000E+00   0.0000000E+00  -0.1000000E-01   0.0000000E+00   0.0000000E+00   0.0000000E+00   0.0000000E+00
  -0.4513240E-01   0.2937800E-01   0.0000000E+00   0.0000000E+00   0.0000000E+00   0.0000000E+00   0.0000000E+00
   0.0000000E+00   0.0000000E+00  -0.1000000E-01   0.0000000E+00   0.0000000E+00   0.0000000E+00   0.0000000E+00
  -0.4851870E-01   0.2336540E-01   0.0000000E+00   0.0000000E+00   0.0000000E+00   0.0000000E+00   0.0000000E+00
   0.0000000E+00   0.0000000E+00  -0.1000000E-01   0.0000000E+00   0.0000000E+00   0.0000000E+00   0.0000000E+00
  -0.4692190E-01   0.2642600E-01   0.0000000E+00   0.0000000E+00   0.0000000E+00   0.0000000E+00   0.0000000E+00
   0.0000000E+00   0.0000000E+00  -0.1000000E-01   0.0000000E+00   0.0000000E+00   0.0000000E+00   0.0000000E+00
  -0.4991600E-01   0.2020870E-01   0.0000000E+00   0.0000000E+00   0.0000000E+00   0.0000000E+00   0.0000000E+00
   0.0000000E+00   0.0000000E+00  -0.1000000E-01   0.0000000E+00   0.0000000E+00   0.0000000E+00   0.0000000E+00
  -0.4851870E-01   0.2336540E-01   0.0000000E+00   0.0000000E+00   0.0000000E+00   0.0000000E+00   0.0000000E+00
   0.0000000E+00   0.0000000E+00  -0.1000000E-01   0.0000000E+00   0.0000000E+00   0.0000000E+00   0.0000000E+00
  -0.5110820E-01   0.1696910E-01   0.0000000E+00   0.0000000E+00   0.0000000E+00   0.0000000E+00   0.0000000E+00
   0.0000000E+00   0.0000000E+00  -0.1000000E-01   0.0000000E+00   0.0000000E+00   0.0000000E+00   0.0000000E+00
  -0.4991600E-01   0.2020870E-01   0.0000000E+00   0.0000000E+00   0.0000000E+00   0.0000000E+00   0.0000000E+00
   0.0000000E+00   0.0000000E+00  -0.1000000E-01   0.0000000E+00   0.0000000E+00   0.0000000E+00   0.0000000E+00
  -0.5209040E-01   0.1365970E-01   0.0000000E+00   0.0000000E+00   0.0000000E+00   0.0000000E+00   0.0000000E+00
   0.0000000E+00   0.0000000E+00  -0.1000000E-01   0.0000000E+00   0.0000000E+00   0.0000000E+00   0.0000000E+00
  -0.5110820E-01   0.1696910E-01   0.0000000E+00   0.0000000E+00   0.0000000E+00   0.0000000E+00   0.0000000E+00
   0.0000000E+00   0.0000000E+00  -0.1000000E-01   0.0000000E+00   0.0000000E+00   0.0000000E+00   0.0000000E+00
  -0.5285860E-01   0.1029420E-01   0.0000000E+00   0.0000000E+00   0.0000000E+00   0.0000000E+00   0.0000000E+00
   0.0000000E+00   0.0000000E+00  -0.1000000E-01   0.0000000E+00   0.0000000E+00   0.0000000E+00   0.0000000E+00
  -0.5209040E-01   0.1365970E-01   0.0000000E+00   0.0000000E+00   0.0000000E+00   0.0000000E+00   0.0000000E+00
   0.0000000E+00   0.0000000E+00  -0.1000000E-01   0.0000000E+00   0.0000000E+00   0.0000000E+00   0.0000000E+00
  -0.5340950E-01   0.6886400E-02   0.0000000E+00   0.0000000E+00   0.0000000E+00   0.0000000E+00   0.0000000E+00
   0.0000000E+00   0.0000000E+00  -0.1000000E-01   0.0000000E+00   0.0000000E+00   0.0000000E+00   0.0000000E+00
  -0.5285860E-01   0.1029420E-01   0.0000000E+00   0.0000000E+00   0.0000000E+00   0.0000000E+00   0.0000000E+00
   0.0000000E+00   0.0000000E+00  -0.1000000E-01   0.0000000E+00   0.0000000E+00   0.0000000E+00   0.0000000E+00
  -0.5374100E-01   0.3450300E-02   0.0000000E+00   0.0000000E+00   0.0000000E+00   0.0000000E+00   0.0000000E+00
   0.0000000E+00   0.0000000E+00  -0.1000000E-01   0.0000000E+00   0.0000000E+00   0.0000000E+00   0.0000000E+00
  -0.5340950E-01   0.6886400E-02   0.0000000E+00   0.0000000E+00   0.0000000E+00   0.0000000E+00   0.0000000E+00
   0.0000000E+00   0.0000000E+00  -0.1000000E-01   0.0000000E+00   0.0000000E+00   0.0000000E+00   0.0000000E+00
  -0.5385160E-01   0.0000000E+00   0.0000000E+00   0.0000000E+00   0.0000000E+00   0.0000000E+00   0.0000000E+00
   0.0000000E+00   0.0000000E+00  -0.1000000E-01   0.0000000E+00   0.0000000E+00   0.0000000E+00   0.0000000E+00
  -0.5374100E-01   0.3450300E-02   0.0000000E+00   0.0000000E+00   0.0000000E+00   0.0000000E+00   0.0000000E+00
     1       2       4       3
     5       6       8       7
     9      10      12      11
    13      14      16      15
    17      18      20      19
    21      22      24      23
    25      26      28      27
    29      30      32      31
    33      34      36      35
    37      38      40      39
    41      42      44      43
    45      46      48      47
    49      50      52      51
    53      54      56      55
    57      58      60      59
    61      62      64      63
    65      66      68      67
    69      70      72      71
    73      74      76      75
    77      78      80      79
    81      82      84      83
    85      86      88      87
    89      90      92      91
    93      94      96      95
    97      98     100      99
   101     102     104     103
   105     106     108     107
   109     110     112     111
   113     114     116     115
   117     118     120     119
   121     122     124     123
   125     126     128     127
   129     130     132     131
   133     134     136     135
   137     138     140     139
   141     142     144     143
   145     146     148     147
   149     150     152     151
   153     154     156     155
   157     158     160     159
   161     162     164     163
   165     166     168     167
   169     170     172     171
   173     174     176     175
   177     178     180     179
   181     182     184     183
   185     186     188     187
   189     190     192     191
   193     194     196     195
 ZONE t="normales", F=POINT, I=          49
   0.3586420E-01   0.1150100E-02  -0.3333333E-02   0.1825712E+00   0.5852361E-02  -0.9831752E+00   0.9449189E-04
   0.3571683E-01   0.3445567E-02  -0.3333333E-02   0.1818207E+00   0.1754140E-01  -0.9831752E+00   0.9449141E-04
   0.3542270E-01   0.5726866E-02  -0.3333333E-02   0.1803239E+00   0.2915088E-01  -0.9831752E+00   0.9449109E-04
   0.3498300E-01   0.7984634E-02  -0.3333333E-02   0.1780846E+00   0.4064909E-01  -0.9831752E+00   0.9449161E-04
   0.3439954E-01   0.1020960E-01  -0.3333334E-02   0.1751152E+00   0.5197256E-01  -0.9831753E+00   0.9449205E-04
   0.3367473E-01   0.1239260E-01  -0.3333333E-02   0.1714253E+00   0.6308601E-01  -0.9831752E+00   0.9449013E-04
   0.3281157E-01   0.1452470E-01  -0.3333334E-02   0.1670326E+00   0.7393625E-01  -0.9831752E+00   0.9449359E-04
   0.3181353E-01   0.1659713E-01  -0.3333333E-02   0.1619487E+00   0.8449300E-01  -0.9831753E+00   0.9449288E-04
   0.3068477E-01   0.1860133E-01  -0.3333333E-02   0.1562050E+00   0.9469149E-01  -0.9831753E+00   0.9449122E-04
   0.2942993E-01   0.2052907E-01  -0.3333333E-02   0.1498148E+00   0.1045085E+00  -0.9831752E+00   0.9448993E-04
   0.2805417E-01   0.2237247E-01  -0.3333333E-02   0.1428154E+00   0.1138870E+00  -0.9831752E+00   0.9449268E-04
   0.2656313E-01   0.2412397E-01  -0.3333333E-02   0.1352237E+00   0.1228047E+00  -0.9831752E+00   0.9449148E-04
   0.2496293E-01   0.2577630E-01  -0.3333333E-02   0.1270753E+00   0.1312186E+00  -0.9831752E+00   0.9449128E-04
   0.2326013E-01   0.2732270E-01  -0.3333333E-02   0.1184068E+00   0.1390910E+00  -0.9831753E+00   0.9449201E-04
   0.2146177E-01   0.2875683E-01  -0.3333333E-02   0.1092542E+00   0.1463900E+00  -0.9831752E+00   0.9449071E-04
   0.1957523E-01   0.3007283E-01  -0.3333333E-02   0.9965371E-01   0.1530869E+00  -0.9831753E+00   0.9449212E-04
   0.1760823E-01   0.3126524E-01  -0.3333333E-02   0.8963218E-01   0.1591620E+00  -0.9831752E+00   0.9449177E-04
   0.1556887E-01   0.3232913E-01  -0.3333333E-02   0.7925578E-01   0.1645754E+00  -0.9831753E+00   0.9449161E-04
   0.1346557E-01   0.3326023E-01  -0.3333333E-02   0.6855195E-01   0.1693136E+00  -0.9831753E+00   0.9449034E-04
   0.1130693E-01   0.3405463E-01  -0.3333333E-02   0.5755566E-01   0.1733603E+00  -0.9831752E+00   0.9449106E-04
   0.9101801E-02   0.3470910E-01  -0.3333333E-02   0.4633672E-01   0.1766901E+00  -0.9831752E+00   0.9449312E-04
   0.6859267E-02   0.3522097E-01  -0.3333333E-02   0.3491851E-01   0.1792962E+00  -0.9831753E+00   0.9449168E-04
   0.4588567E-02   0.3558807E-01  -0.3333333E-02   0.2335665E-01   0.1811654E+00  -0.9831752E+00   0.9449098E-04
   0.2299000E-02   0.3580894E-01  -0.3333333E-02   0.1170464E-01   0.1822895E+00  -0.9831753E+00   0.9449254E-04
   0.0000000E+00   0.3588267E-01  -0.3333333E-02   0.0000000E+00   0.1826648E+00  -0.9831752E+00   0.9448999E-04
  -0.2299000E-02   0.3580894E-01  -0.3333334E-02  -0.1170464E-01   0.1822895E+00  -0.9831753E+00   0.9449255E-04
  -0.4588567E-02   0.3558807E-01  -0.3333333E-02  -0.2335665E-01   0.1811654E+00  -0.9831752E+00   0.9449098E-04
  -0.6859267E-02   0.3522097E-01  -0.3333333E-02  -0.3491851E-01   0.1792962E+00  -0.9831753E+00   0.9449168E-04
  -0.9101801E-02   0.3470910E-01  -0.3333333E-02  -0.4633672E-01   0.1766901E+00  -0.9831752E+00   0.9449312E-04
  -0.1130693E-01   0.3405463E-01  -0.3333333E-02  -0.5755566E-01   0.1733604E+00  -0.9831752E+00   0.9449106E-04
  -0.1346557E-01   0.3326023E-01  -0.3333333E-02  -0.6855195E-01   0.1693136E+00  -0.9831753E+00   0.9449034E-04
  -0.1556887E-01   0.3232913E-01  -0.3333333E-02  -0.7925578E-01   0.1645754E+00  -0.9831753E+00   0.9449161E-04
  -0.1760823E-01   0.3126524E-01  -0.3333333E-02  -0.8963217E-01   0.1591620E+00  -0.9831752E+00   0.9449178E-04
  -0.1957523E-01   0.3007283E-01  -0.3333333E-02  -0.9965371E-01   0.1530869E+00  -0.9831753E+00   0.9449212E-04
  -0.2146177E-01   0.2875683E-01  -0.3333333E-02  -0.1092542E+00   0.1463900E+00  -0.9831753E+00   0.9449071E-04
  -0.2326013E-01   0.2732270E-01  -0.3333333E-02  -0.1184068E+00   0.1390910E+00  -0.9831753E+00   0.9449201E-04
  -0.2496293E-01   0.2577630E-01  -0.3333333E-02  -0.1270753E+00   0.1312186E+00  -0.9831752E+00   0.9449128E-04
  -0.2656313E-01   0.2412397E-01  -0.3333333E-02  -0.1352237E+00   0.1228047E+00  -0.9831752E+00   0.9449148E-04
  -0.2805417E-01   0.2237247E-01  -0.3333333E-02  -0.1428154E+00   0.1138870E+00  -0.9831752E+00   0.9449268E-04
  -0.2942993E-01   0.2052907E-01  -0.3333333E-02  -0.1498148E+00   0.1045085E+00  -0.9831752E+00   0.9448993E-04
  -0.3068477E-01   0.1860133E-01  -0.3333333E-02  -0.1562050E+00   0.9469149E-01  -0.9831753E+00   0.9449122E-04
  -0.3181353E-01   0.1659713E-01  -0.3333333E-02  -0.1619487E+00   0.8449300E-01  -0.9831753E+00   0.9449288E-04
  -0.3281157E-01   0.1452470E-01  -0.3333334E-02  -0.1670326E+00   0.7393625E-01  -0.9831752E+00   0.9449359E-04
  -0.3367473E-01   0.1239260E-01  -0.3333333E-02  -0.1714253E+00   0.6308601E-01  -0.9831752E+00   0.9449013E-04
  -0.3439954E-01   0.1020960E-01  -0.3333334E-02  -0.1751152E+00   0.5197256E-01  -0.9831753E+00   0.9449205E-04
  -0.3498300E-01   0.7984634E-02  -0.3333333E-02  -0.1780846E+00   0.4064909E-01  -0.9831753E+00   0.9449160E-04
  -0.3542270E-01   0.5726866E-02  -0.3333333E-02  -0.1803239E+00   0.2915088E-01  -0.9831752E+00   0.9449109E-04
  -0.3571683E-01   0.3445567E-02  -0.3333333E-02  -0.1818207E+00   0.1754140E-01  -0.9831752E+00   0.9449141E-04
  -0.3586420E-01   0.1150100E-02  -0.3333333E-02  -0.1825712E+00   0.5852361E-02  -0.9831752E+00   0.9449190E-04
