VARIABLES="w (rad/s)"
"abs(F   1   1)" "angle(F   1   1)"
"abs(F   1   2)" "angle(F   1   2)"
"abs(F   1   3)" "angle(F   1   3)"
Zone t="FKforce - beta =   0.000",I=    32,F=POINT
  0.1000000E+00  0.2410312E+03 -0.1570795E+01  0.2836818E+06  0.1200259E-10  0.1220238E+04 -0.1570804E+01
  0.2000000E+00  0.9622660E+03 -0.1570796E+01  0.2829560E+06  0.3667941E-10  0.4873196E+04 -0.1570799E+01
  0.3000000E+00  0.2158099E+04 -0.1570796E+01  0.2817378E+06  0.3808092E-10  0.1093534E+05 -0.1570794E+01
  0.4000000E+00  0.3819075E+04 -0.1570797E+01  0.2800195E+06 -0.4268353E-09  0.1936670E+05 -0.1570797E+01
  0.5000000E+00  0.5931746E+04 -0.1570796E+01  0.2777848E+06  0.2438066E-09  0.3010964E+05 -0.1570797E+01
  0.6000001E+00  0.8478433E+04 -0.1570796E+01  0.2750150E+06 -0.7725425E-09  0.4308752E+05 -0.1570797E+01
  0.7000000E+00  0.1143701E+05 -0.1570796E+01  0.2716899E+06 -0.8313589E-09  0.5820216E+05 -0.1570796E+01
  0.8000001E+00  0.1478052E+05 -0.1570796E+01  0.2677858E+06 -0.1850780E-09  0.7533248E+05 -0.1570796E+01
  0.9000000E+00  0.1847696E+05 -0.1570796E+01  0.2632738E+06  0.1700248E-09  0.9433102E+05 -0.1570796E+01
  0.1000000E+01  0.2248878E+05 -0.1570796E+01  0.2581283E+06 -0.2989603E-08  0.1150221E+06 -0.1570796E+01
  0.1100000E+01  0.2677269E+05 -0.1570796E+01  0.2523195E+06  0.3746321E-08  0.1371978E+06 -0.1570796E+01
  0.1200000E+01  0.3127923E+05 -0.1570796E+01  0.2458188E+06  0.4165702E-09  0.1606179E+06 -0.1570796E+01
  0.1300000E+01  0.3595271E+05 -0.1570796E+01  0.2385999E+06 -0.5368418E-09  0.1850040E+06 -0.1570796E+01
  0.1400000E+01  0.4073059E+05 -0.1570796E+01  0.2306389E+06  0.6984919E-08  0.2100411E+06 -0.1570796E+01
  0.1500000E+01  0.4554398E+05 -0.1570796E+01  0.2219179E+06 -0.6446130E-11  0.2353740E+06 -0.1570796E+01
  0.1600000E+01  0.5031765E+05 -0.1570796E+01  0.2124231E+06 -0.9646822E-09  0.2606078E+06 -0.1570796E+01
  0.1700000E+01  0.5496994E+05 -0.1570796E+01  0.2021518E+06 -0.1181763E-08  0.2853107E+06 -0.1570796E+01
  0.1800000E+01  0.5941383E+05 -0.1570796E+01  0.1911102E+06 -0.1140069E-07  0.3090140E+06 -0.1570796E+01
  0.1900000E+01  0.6355776E+05 -0.1570796E+01  0.1793185E+06  0.1009086E-07  0.3312189E+06 -0.1570796E+01
  0.2000000E+01  0.6730678E+05 -0.1570796E+01  0.1668115E+06  0.7139202E-08  0.3514003E+06 -0.1570796E+01
  0.2100000E+01  0.7056445E+05 -0.1570796E+01  0.1536408E+06 -0.2202149E-07  0.3690204E+06 -0.1570796E+01
  0.2200000E+01  0.7323424E+05 -0.1570796E+01  0.1398778E+06 -0.2790486E-07  0.3835359E+06 -0.1570796E+01
  0.2300000E+01  0.7522323E+05 -0.1570796E+01  0.1256139E+06 -0.1688201E-07  0.3944148E+06 -0.1570796E+01
  0.2400000E+01  0.7644403E+05 -0.1570796E+01  0.1109631E+06  0.1428838E-07  0.4011524E+06 -0.1570796E+01
  0.2500000E+01  0.7681820E+05 -0.1570796E+01  0.9606164E+05 -0.1817147E-07  0.4032914E+06 -0.1570796E+01
  0.2600000E+01  0.7628073E+05 -0.1570796E+01  0.8106745E+05 -0.2439110E-07  0.4004426E+06 -0.1570796E+01
  0.2700000E+01  0.7478271E+05 -0.1570796E+01  0.6615966E+05  0.4470372E-08  0.3923090E+06 -0.1570796E+01
  0.2800000E+01  0.7229642E+05 -0.1570796E+01  0.5153587E+05 -0.3658913E-07  0.3787102E+06 -0.1570796E+01
  0.2900000E+01  0.6881844E+05 -0.1570796E+01  0.3740836E+05 -0.3872639E-07  0.3596020E+06 -0.1570796E+01
  0.3000000E+01  0.6437332E+05 -0.1570796E+01  0.2399922E+05 -0.7681054E-07  0.3351033E+06 -0.1570796E+01
  0.3100000E+01  0.5901692E+05 -0.1570796E+01  0.1153383E+05 -0.2967355E-07  0.3055111E+06 -0.1570796E+01
  0.3200000E+01  0.5283780E+05 -0.1570796E+01  0.2333245E+03  0.1473483E-05  0.2713138E+06 -0.1570796E+01
