VARIABLES="X" "Y" "Z" "NX" "NY" "NZ" "A"
 ZONE N=        1568 , E=         392  , F=FEPOINT,ET=QUADRILATERAL
   0.1266251E+00   0.8129600E-02  -0.1000000E-02   0.0000000E+00   0.0000000E+00   0.0000000E+00   0.0000000E+00
   0.1272018E+00   0.8166600E-02   0.0000000E+00   0.0000000E+00   0.0000000E+00   0.0000000E+00   0.0000000E+00
   0.1268858E+00   0.0000000E+00  -0.1000000E-02   0.0000000E+00   0.0000000E+00   0.0000000E+00   0.0000000E+00
   0.1274637E+00   0.0000000E+00   0.0000000E+00   0.0000000E+00   0.0000000E+00   0.0000000E+00   0.0000000E+00
   0.1258440E+00   0.1622580E-01  -0.1000000E-02   0.0000000E+00   0.0000000E+00   0.0000000E+00   0.0000000E+00
   0.1264172E+00   0.1629970E-01   0.0000000E+00   0.0000000E+00   0.0000000E+00   0.0000000E+00   0.0000000E+00
   0.1266251E+00   0.8129600E-02  -0.1000000E-02   0.0000000E+00   0.0000000E+00   0.0000000E+00   0.0000000E+00
   0.1272018E+00   0.8166600E-02   0.0000000E+00   0.0000000E+00   0.0000000E+00   0.0000000E+00   0.0000000E+00
   0.1245459E+00   0.2425530E-01  -0.1000000E-02   0.0000000E+00   0.0000000E+00   0.0000000E+00   0.0000000E+00
   0.1251132E+00   0.2436580E-01   0.0000000E+00   0.0000000E+00   0.0000000E+00   0.0000000E+00   0.0000000E+00
   0.1258440E+00   0.1622580E-01  -0.1000000E-02   0.0000000E+00   0.0000000E+00   0.0000000E+00   0.0000000E+00
   0.1264172E+00   0.1629970E-01   0.0000000E+00   0.0000000E+00   0.0000000E+00   0.0000000E+00   0.0000000E+00
   0.1227360E+00   0.3218520E-01  -0.1000000E-02   0.0000000E+00   0.0000000E+00   0.0000000E+00   0.0000000E+00
   0.1232950E+00   0.3233180E-01   0.0000000E+00   0.0000000E+00   0.0000000E+00   0.0000000E+00   0.0000000E+00
   0.1245459E+00   0.2425530E-01  -0.1000000E-02   0.0000000E+00   0.0000000E+00   0.0000000E+00   0.0000000E+00
   0.1251132E+00   0.2436580E-01   0.0000000E+00   0.0000000E+00   0.0000000E+00   0.0000000E+00   0.0000000E+00
   0.1204217E+00   0.3998280E-01  -0.1000000E-02   0.0000000E+00   0.0000000E+00   0.0000000E+00   0.0000000E+00
   0.1209702E+00   0.4016490E-01   0.0000000E+00   0.0000000E+00   0.0000000E+00   0.0000000E+00   0.0000000E+00
   0.1227360E+00   0.3218520E-01  -0.1000000E-02   0.0000000E+00   0.0000000E+00   0.0000000E+00   0.0000000E+00
   0.1232950E+00   0.3233180E-01   0.0000000E+00   0.0000000E+00   0.0000000E+00   0.0000000E+00   0.0000000E+00
   0.1176126E+00   0.4761600E-01  -0.1000000E-02   0.0000000E+00   0.0000000E+00   0.0000000E+00   0.0000000E+00
   0.1181483E+00   0.4783290E-01   0.0000000E+00   0.0000000E+00   0.0000000E+00   0.0000000E+00   0.0000000E+00
   0.1204217E+00   0.3998280E-01  -0.1000000E-02   0.0000000E+00   0.0000000E+00   0.0000000E+00   0.0000000E+00
   0.1209702E+00   0.4016490E-01   0.0000000E+00   0.0000000E+00   0.0000000E+00   0.0000000E+00   0.0000000E+00
   0.1143201E+00   0.5505370E-01  -0.1000000E-02   0.0000000E+00   0.0000000E+00   0.0000000E+00   0.0000000E+00
   0.1148408E+00   0.5530440E-01   0.0000000E+00   0.0000000E+00   0.0000000E+00   0.0000000E+00   0.0000000E+00
   0.1176126E+00   0.4761600E-01  -0.1000000E-02   0.0000000E+00   0.0000000E+00   0.0000000E+00   0.0000000E+00
   0.1181483E+00   0.4783290E-01   0.0000000E+00   0.0000000E+00   0.0000000E+00   0.0000000E+00   0.0000000E+00
   0.1105579E+00   0.6226510E-01  -0.1000000E-02   0.0000000E+00   0.0000000E+00   0.0000000E+00   0.0000000E+00
   0.1110615E+00   0.6254870E-01   0.0000000E+00   0.0000000E+00   0.0000000E+00   0.0000000E+00   0.0000000E+00
   0.1143201E+00   0.5505370E-01  -0.1000000E-02   0.0000000E+00   0.0000000E+00   0.0000000E+00   0.0000000E+00
   0.1148408E+00   0.5530440E-01   0.0000000E+00   0.0000000E+00   0.0000000E+00   0.0000000E+00   0.0000000E+00
   0.1063415E+00   0.6922060E-01  -0.1000000E-02   0.0000000E+00   0.0000000E+00   0.0000000E+00   0.0000000E+00
   0.1068259E+00   0.6953590E-01   0.0000000E+00   0.0000000E+00   0.0000000E+00   0.0000000E+00   0.0000000E+00
   0.1105579E+00   0.6226510E-01  -0.1000000E-02   0.0000000E+00   0.0000000E+00   0.0000000E+00   0.0000000E+00
   0.1110615E+00   0.6254870E-01   0.0000000E+00   0.0000000E+00   0.0000000E+00   0.0000000E+00   0.0000000E+00
   0.1016880E+00   0.7589170E-01  -0.1000000E-02   0.0000000E+00   0.0000000E+00   0.0000000E+00   0.0000000E+00
   0.1021511E+00   0.7623740E-01   0.0000000E+00   0.0000000E+00   0.0000000E+00   0.0000000E+00   0.0000000E+00
   0.1063415E+00   0.6922060E-01  -0.1000000E-02   0.0000000E+00   0.0000000E+00   0.0000000E+00   0.0000000E+00
   0.1068259E+00   0.6953590E-01   0.0000000E+00   0.0000000E+00   0.0000000E+00   0.0000000E+00   0.0000000E+00
   0.9661670E-01   0.8225100E-01  -0.1000000E-02   0.0000000E+00   0.0000000E+00   0.0000000E+00   0.0000000E+00
   0.9705670E-01   0.8262560E-01   0.0000000E+00   0.0000000E+00   0.0000000E+00   0.0000000E+00   0.0000000E+00
   0.1016880E+00   0.7589170E-01  -0.1000000E-02   0.0000000E+00   0.0000000E+00   0.0000000E+00   0.0000000E+00
   0.1021511E+00   0.7623740E-01   0.0000000E+00   0.0000000E+00   0.0000000E+00   0.0000000E+00   0.0000000E+00
   0.9114830E-01   0.8827220E-01  -0.1000000E-02   0.0000000E+00   0.0000000E+00   0.0000000E+00   0.0000000E+00
   0.9156350E-01   0.8867430E-01   0.0000000E+00   0.0000000E+00   0.0000000E+00   0.0000000E+00   0.0000000E+00
   0.9661670E-01   0.8225100E-01  -0.1000000E-02   0.0000000E+00   0.0000000E+00   0.0000000E+00   0.0000000E+00
   0.9705670E-01   0.8262560E-01   0.0000000E+00   0.0000000E+00   0.0000000E+00   0.0000000E+00   0.0000000E+00
   0.8530540E-01   0.9393080E-01  -0.1000000E-02   0.0000000E+00   0.0000000E+00   0.0000000E+00   0.0000000E+00
   0.8569400E-01   0.9435860E-01   0.0000000E+00   0.0000000E+00   0.0000000E+00   0.0000000E+00   0.0000000E+00
   0.9114830E-01   0.8827220E-01  -0.1000000E-02   0.0000000E+00   0.0000000E+00   0.0000000E+00   0.0000000E+00
   0.9156350E-01   0.8867430E-01   0.0000000E+00   0.0000000E+00   0.0000000E+00   0.0000000E+00   0.0000000E+00
   0.7911200E-01   0.9920330E-01  -0.1000000E-02   0.0000000E+00   0.0000000E+00   0.0000000E+00   0.0000000E+00
   0.7947230E-01   0.9965510E-01   0.0000000E+00   0.0000000E+00   0.0000000E+00   0.0000000E+00   0.0000000E+00
   0.8530540E-01   0.9393080E-01  -0.1000000E-02   0.0000000E+00   0.0000000E+00   0.0000000E+00   0.0000000E+00
   0.8569400E-01   0.9435860E-01   0.0000000E+00   0.0000000E+00   0.0000000E+00   0.0000000E+00   0.0000000E+00
   0.7259350E-01   0.1040682E+00  -0.1000000E-02   0.0000000E+00   0.0000000E+00   0.0000000E+00   0.0000000E+00
   0.7292410E-01   0.1045422E+00   0.0000000E+00   0.0000000E+00   0.0000000E+00   0.0000000E+00   0.0000000E+00
   0.7911200E-01   0.9920330E-01  -0.1000000E-02   0.0000000E+00   0.0000000E+00   0.0000000E+00   0.0000000E+00
   0.7947230E-01   0.9965510E-01   0.0000000E+00   0.0000000E+00   0.0000000E+00   0.0000000E+00   0.0000000E+00
   0.6577660E-01   0.1085055E+00  -0.1000000E-02   0.0000000E+00   0.0000000E+00   0.0000000E+00   0.0000000E+00
   0.6607620E-01   0.1089997E+00   0.0000000E+00   0.0000000E+00   0.0000000E+00   0.0000000E+00   0.0000000E+00
   0.7259350E-01   0.1040682E+00  -0.1000000E-02   0.0000000E+00   0.0000000E+00   0.0000000E+00   0.0000000E+00
   0.7292410E-01   0.1045422E+00   0.0000000E+00   0.0000000E+00   0.0000000E+00   0.0000000E+00   0.0000000E+00
   0.5868950E-01   0.1124968E+00  -0.1000000E-02   0.0000000E+00   0.0000000E+00   0.0000000E+00   0.0000000E+00
   0.5895680E-01   0.1130092E+00   0.0000000E+00   0.0000000E+00   0.0000000E+00   0.0000000E+00   0.0000000E+00
   0.6577660E-01   0.1085055E+00  -0.1000000E-02   0.0000000E+00   0.0000000E+00   0.0000000E+00   0.0000000E+00
   0.6607620E-01   0.1089997E+00   0.0000000E+00   0.0000000E+00   0.0000000E+00   0.0000000E+00   0.0000000E+00
   0.5136130E-01   0.1160260E+00  -0.1000000E-02   0.0000000E+00   0.0000000E+00   0.0000000E+00   0.0000000E+00
   0.5159520E-01   0.1165544E+00   0.0000000E+00   0.0000000E+00   0.0000000E+00   0.0000000E+00   0.0000000E+00
   0.5868950E-01   0.1124968E+00  -0.1000000E-02   0.0000000E+00   0.0000000E+00   0.0000000E+00   0.0000000E+00
   0.5895680E-01   0.1130092E+00   0.0000000E+00   0.0000000E+00   0.0000000E+00   0.0000000E+00   0.0000000E+00
   0.4382190E-01   0.1190783E+00  -0.1000000E-02   0.0000000E+00   0.0000000E+00   0.0000000E+00   0.0000000E+00
   0.4402150E-01   0.1196207E+00   0.0000000E+00   0.0000000E+00   0.0000000E+00   0.0000000E+00   0.0000000E+00
   0.5136130E-01   0.1160260E+00  -0.1000000E-02   0.0000000E+00   0.0000000E+00   0.0000000E+00   0.0000000E+00
   0.5159520E-01   0.1165544E+00   0.0000000E+00   0.0000000E+00   0.0000000E+00   0.0000000E+00   0.0000000E+00
   0.3610250E-01   0.1216413E+00  -0.1000000E-02   0.0000000E+00   0.0000000E+00   0.0000000E+00   0.0000000E+00
   0.3626690E-01   0.1221953E+00   0.0000000E+00   0.0000000E+00   0.0000000E+00   0.0000000E+00   0.0000000E+00
   0.4382190E-01   0.1190783E+00  -0.1000000E-02   0.0000000E+00   0.0000000E+00   0.0000000E+00   0.0000000E+00
   0.4402150E-01   0.1196207E+00   0.0000000E+00   0.0000000E+00   0.0000000E+00   0.0000000E+00   0.0000000E+00
   0.2823470E-01   0.1237045E+00  -0.1000000E-02   0.0000000E+00   0.0000000E+00   0.0000000E+00   0.0000000E+00
   0.2836330E-01   0.1242679E+00   0.0000000E+00   0.0000000E+00   0.0000000E+00   0.0000000E+00   0.0000000E+00
   0.3610250E-01   0.1216413E+00  -0.1000000E-02   0.0000000E+00   0.0000000E+00   0.0000000E+00   0.0000000E+00
   0.3626690E-01   0.1221953E+00   0.0000000E+00   0.0000000E+00   0.0000000E+00   0.0000000E+00   0.0000000E+00
   0.2025100E-01   0.1252593E+00  -0.1000000E-02   0.0000000E+00   0.0000000E+00   0.0000000E+00   0.0000000E+00
   0.2034320E-01   0.1258298E+00   0.0000000E+00   0.0000000E+00   0.0000000E+00   0.0000000E+00   0.0000000E+00
   0.2823470E-01   0.1237045E+00  -0.1000000E-02   0.0000000E+00   0.0000000E+00   0.0000000E+00   0.0000000E+00
   0.2836330E-01   0.1242679E+00   0.0000000E+00   0.0000000E+00   0.0000000E+00   0.0000000E+00   0.0000000E+00
   0.1218400E-01   0.1262995E+00  -0.1000000E-02   0.0000000E+00   0.0000000E+00   0.0000000E+00   0.0000000E+00
   0.1223950E-01   0.1268747E+00   0.0000000E+00   0.0000000E+00   0.0000000E+00   0.0000000E+00   0.0000000E+00
   0.2025100E-01   0.1252593E+00  -0.1000000E-02   0.0000000E+00   0.0000000E+00   0.0000000E+00   0.0000000E+00
   0.2034320E-01   0.1258298E+00   0.0000000E+00   0.0000000E+00   0.0000000E+00   0.0000000E+00   0.0000000E+00
   0.4066900E-02   0.1268206E+00  -0.1000000E-02   0.0000000E+00   0.0000000E+00   0.0000000E+00   0.0000000E+00
   0.4085400E-02   0.1273982E+00   0.0000000E+00   0.0000000E+00   0.0000000E+00   0.0000000E+00   0.0000000E+00
   0.1218400E-01   0.1262995E+00  -0.1000000E-02   0.0000000E+00   0.0000000E+00   0.0000000E+00   0.0000000E+00
   0.1223950E-01   0.1268747E+00   0.0000000E+00   0.0000000E+00   0.0000000E+00   0.0000000E+00   0.0000000E+00
  -0.4066900E-02   0.1268206E+00  -0.1000000E-02   0.0000000E+00   0.0000000E+00   0.0000000E+00   0.0000000E+00
  -0.4085400E-02   0.1273982E+00   0.0000000E+00   0.0000000E+00   0.0000000E+00   0.0000000E+00   0.0000000E+00
   0.4066900E-02   0.1268206E+00  -0.1000000E-02   0.0000000E+00   0.0000000E+00   0.0000000E+00   0.0000000E+00
   0.4085400E-02   0.1273982E+00   0.0000000E+00   0.0000000E+00   0.0000000E+00   0.0000000E+00   0.0000000E+00
  -0.1218400E-01   0.1262995E+00  -0.1000000E-02   0.0000000E+00   0.0000000E+00   0.0000000E+00   0.0000000E+00
  -0.1223950E-01   0.1268747E+00   0.0000000E+00   0.0000000E+00   0.0000000E+00   0.0000000E+00   0.0000000E+00
  -0.4066900E-02   0.1268206E+00  -0.1000000E-02   0.0000000E+00   0.0000000E+00   0.0000000E+00   0.0000000E+00
  -0.4085400E-02   0.1273982E+00   0.0000000E+00   0.0000000E+00   0.0000000E+00   0.0000000E+00   0.0000000E+00
  -0.2025100E-01   0.1252593E+00  -0.1000000E-02   0.0000000E+00   0.0000000E+00   0.0000000E+00   0.0000000E+00
  -0.2034320E-01   0.1258298E+00   0.0000000E+00   0.0000000E+00   0.0000000E+00   0.0000000E+00   0.0000000E+00
  -0.1218400E-01   0.1262995E+00  -0.1000000E-02   0.0000000E+00   0.0000000E+00   0.0000000E+00   0.0000000E+00
  -0.1223950E-01   0.1268747E+00   0.0000000E+00   0.0000000E+00   0.0000000E+00   0.0000000E+00   0.0000000E+00
  -0.2823470E-01   0.1237045E+00  -0.1000000E-02   0.0000000E+00   0.0000000E+00   0.0000000E+00   0.0000000E+00
  -0.2836330E-01   0.1242679E+00   0.0000000E+00   0.0000000E+00   0.0000000E+00   0.0000000E+00   0.0000000E+00
  -0.2025100E-01   0.1252593E+00  -0.1000000E-02   0.0000000E+00   0.0000000E+00   0.0000000E+00   0.0000000E+00
  -0.2034320E-01   0.1258298E+00   0.0000000E+00   0.0000000E+00   0.0000000E+00   0.0000000E+00   0.0000000E+00
  -0.3610250E-01   0.1216413E+00  -0.1000000E-02   0.0000000E+00   0.0000000E+00   0.0000000E+00   0.0000000E+00
  -0.3626690E-01   0.1221953E+00   0.0000000E+00   0.0000000E+00   0.0000000E+00   0.0000000E+00   0.0000000E+00
  -0.2823470E-01   0.1237045E+00  -0.1000000E-02   0.0000000E+00   0.0000000E+00   0.0000000E+00   0.0000000E+00
  -0.2836330E-01   0.1242679E+00   0.0000000E+00   0.0000000E+00   0.0000000E+00   0.0000000E+00   0.0000000E+00
  -0.4382190E-01   0.1190783E+00  -0.1000000E-02   0.0000000E+00   0.0000000E+00   0.0000000E+00   0.0000000E+00
  -0.4402150E-01   0.1196207E+00   0.0000000E+00   0.0000000E+00   0.0000000E+00   0.0000000E+00   0.0000000E+00
  -0.3610250E-01   0.1216413E+00  -0.1000000E-02   0.0000000E+00   0.0000000E+00   0.0000000E+00   0.0000000E+00
  -0.3626690E-01   0.1221953E+00   0.0000000E+00   0.0000000E+00   0.0000000E+00   0.0000000E+00   0.0000000E+00
  -0.5136130E-01   0.1160260E+00  -0.1000000E-02   0.0000000E+00   0.0000000E+00   0.0000000E+00   0.0000000E+00
  -0.5159520E-01   0.1165544E+00   0.0000000E+00   0.0000000E+00   0.0000000E+00   0.0000000E+00   0.0000000E+00
  -0.4382190E-01   0.1190783E+00  -0.1000000E-02   0.0000000E+00   0.0000000E+00   0.0000000E+00   0.0000000E+00
  -0.4402150E-01   0.1196207E+00   0.0000000E+00   0.0000000E+00   0.0000000E+00   0.0000000E+00   0.0000000E+00
  -0.5868950E-01   0.1124968E+00  -0.1000000E-02   0.0000000E+00   0.0000000E+00   0.0000000E+00   0.0000000E+00
  -0.5895680E-01   0.1130092E+00   0.0000000E+00   0.0000000E+00   0.0000000E+00   0.0000000E+00   0.0000000E+00
  -0.5136130E-01   0.1160260E+00  -0.1000000E-02   0.0000000E+00   0.0000000E+00   0.0000000E+00   0.0000000E+00
  -0.5159520E-01   0.1165544E+00   0.0000000E+00   0.0000000E+00   0.0000000E+00   0.0000000E+00   0.0000000E+00
  -0.6577660E-01   0.1085055E+00  -0.1000000E-02   0.0000000E+00   0.0000000E+00   0.0000000E+00   0.0000000E+00
  -0.6607620E-01   0.1089997E+00   0.0000000E+00   0.0000000E+00   0.0000000E+00   0.0000000E+00   0.0000000E+00
  -0.5868950E-01   0.1124968E+00  -0.1000000E-02   0.0000000E+00   0.0000000E+00   0.0000000E+00   0.0000000E+00
  -0.5895680E-01   0.1130092E+00   0.0000000E+00   0.0000000E+00   0.0000000E+00   0.0000000E+00   0.0000000E+00
  -0.7259350E-01   0.1040682E+00  -0.1000000E-02   0.0000000E+00   0.0000000E+00   0.0000000E+00   0.0000000E+00
  -0.7292410E-01   0.1045422E+00   0.0000000E+00   0.0000000E+00   0.0000000E+00   0.0000000E+00   0.0000000E+00
  -0.6577660E-01   0.1085055E+00  -0.1000000E-02   0.0000000E+00   0.0000000E+00   0.0000000E+00   0.0000000E+00
  -0.6607620E-01   0.1089997E+00   0.0000000E+00   0.0000000E+00   0.0000000E+00   0.0000000E+00   0.0000000E+00
  -0.7911200E-01   0.9920330E-01  -0.1000000E-02   0.0000000E+00   0.0000000E+00   0.0000000E+00   0.0000000E+00
  -0.7947230E-01   0.9965510E-01   0.0000000E+00   0.0000000E+00   0.0000000E+00   0.0000000E+00   0.0000000E+00
  -0.7259350E-01   0.1040682E+00  -0.1000000E-02   0.0000000E+00   0.0000000E+00   0.0000000E+00   0.0000000E+00
  -0.7292410E-01   0.1045422E+00   0.0000000E+00   0.0000000E+00   0.0000000E+00   0.0000000E+00   0.0000000E+00
  -0.8530540E-01   0.9393080E-01  -0.1000000E-02   0.0000000E+00   0.0000000E+00   0.0000000E+00   0.0000000E+00
  -0.8569400E-01   0.9435860E-01   0.0000000E+00   0.0000000E+00   0.0000000E+00   0.0000000E+00   0.0000000E+00
  -0.7911200E-01   0.9920330E-01  -0.1000000E-02   0.0000000E+00   0.0000000E+00   0.0000000E+00   0.0000000E+00
  -0.7947230E-01   0.9965510E-01   0.0000000E+00   0.0000000E+00   0.0000000E+00   0.0000000E+00   0.0000000E+00
  -0.9114830E-01   0.8827220E-01  -0.1000000E-02   0.0000000E+00   0.0000000E+00   0.0000000E+00   0.0000000E+00
  -0.9156350E-01   0.8867430E-01   0.0000000E+00   0.0000000E+00   0.0000000E+00   0.0000000E+00   0.0000000E+00
  -0.8530540E-01   0.9393080E-01  -0.1000000E-02   0.0000000E+00   0.0000000E+00   0.0000000E+00   0.0000000E+00
  -0.8569400E-01   0.9435860E-01   0.0000000E+00   0.0000000E+00   0.0000000E+00   0.0000000E+00   0.0000000E+00
  -0.9661670E-01   0.8225100E-01  -0.1000000E-02   0.0000000E+00   0.0000000E+00   0.0000000E+00   0.0000000E+00
  -0.9705670E-01   0.8262560E-01   0.0000000E+00   0.0000000E+00   0.0000000E+00   0.0000000E+00   0.0000000E+00
  -0.9114830E-01   0.8827220E-01  -0.1000000E-02   0.0000000E+00   0.0000000E+00   0.0000000E+00   0.0000000E+00
  -0.9156350E-01   0.8867430E-01   0.0000000E+00   0.0000000E+00   0.0000000E+00   0.0000000E+00   0.0000000E+00
  -0.1016880E+00   0.7589170E-01  -0.1000000E-02   0.0000000E+00   0.0000000E+00   0.0000000E+00   0.0000000E+00
  -0.1021511E+00   0.7623740E-01   0.0000000E+00   0.0000000E+00   0.0000000E+00   0.0000000E+00   0.0000000E+00
  -0.9661670E-01   0.8225100E-01  -0.1000000E-02   0.0000000E+00   0.0000000E+00   0.0000000E+00   0.0000000E+00
  -0.9705670E-01   0.8262560E-01   0.0000000E+00   0.0000000E+00   0.0000000E+00   0.0000000E+00   0.0000000E+00
  -0.1063415E+00   0.6922060E-01  -0.1000000E-02   0.0000000E+00   0.0000000E+00   0.0000000E+00   0.0000000E+00
  -0.1068259E+00   0.6953590E-01   0.0000000E+00   0.0000000E+00   0.0000000E+00   0.0000000E+00   0.0000000E+00
  -0.1016880E+00   0.7589170E-01  -0.1000000E-02   0.0000000E+00   0.0000000E+00   0.0000000E+00   0.0000000E+00
  -0.1021511E+00   0.7623740E-01   0.0000000E+00   0.0000000E+00   0.0000000E+00   0.0000000E+00   0.0000000E+00
  -0.1105579E+00   0.6226510E-01  -0.1000000E-02   0.0000000E+00   0.0000000E+00   0.0000000E+00   0.0000000E+00
  -0.1110615E+00   0.6254870E-01   0.0000000E+00   0.0000000E+00   0.0000000E+00   0.0000000E+00   0.0000000E+00
  -0.1063415E+00   0.6922060E-01  -0.1000000E-02   0.0000000E+00   0.0000000E+00   0.0000000E+00   0.0000000E+00
  -0.1068259E+00   0.6953590E-01   0.0000000E+00   0.0000000E+00   0.0000000E+00   0.0000000E+00   0.0000000E+00
  -0.1143201E+00   0.5505370E-01  -0.1000000E-02   0.0000000E+00   0.0000000E+00   0.0000000E+00   0.0000000E+00
  -0.1148408E+00   0.5530440E-01   0.0000000E+00   0.0000000E+00   0.0000000E+00   0.0000000E+00   0.0000000E+00
  -0.1105579E+00   0.6226510E-01  -0.1000000E-02   0.0000000E+00   0.0000000E+00   0.0000000E+00   0.0000000E+00
  -0.1110615E+00   0.6254870E-01   0.0000000E+00   0.0000000E+00   0.0000000E+00   0.0000000E+00   0.0000000E+00
  -0.1176126E+00   0.4761600E-01  -0.1000000E-02   0.0000000E+00   0.0000000E+00   0.0000000E+00   0.0000000E+00
  -0.1181483E+00   0.4783290E-01   0.0000000E+00   0.0000000E+00   0.0000000E+00   0.0000000E+00   0.0000000E+00
  -0.1143201E+00   0.5505370E-01  -0.1000000E-02   0.0000000E+00   0.0000000E+00   0.0000000E+00   0.0000000E+00
  -0.1148408E+00   0.5530440E-01   0.0000000E+00   0.0000000E+00   0.0000000E+00   0.0000000E+00   0.0000000E+00
  -0.1204217E+00   0.3998280E-01  -0.1000000E-02   0.0000000E+00   0.0000000E+00   0.0000000E+00   0.0000000E+00
  -0.1209702E+00   0.4016490E-01   0.0000000E+00   0.0000000E+00   0.0000000E+00   0.0000000E+00   0.0000000E+00
  -0.1176126E+00   0.4761600E-01  -0.1000000E-02   0.0000000E+00   0.0000000E+00   0.0000000E+00   0.0000000E+00
  -0.1181483E+00   0.4783290E-01   0.0000000E+00   0.0000000E+00   0.0000000E+00   0.0000000E+00   0.0000000E+00
  -0.1227360E+00   0.3218520E-01  -0.1000000E-02   0.0000000E+00   0.0000000E+00   0.0000000E+00   0.0000000E+00
  -0.1232950E+00   0.3233180E-01   0.0000000E+00   0.0000000E+00   0.0000000E+00   0.0000000E+00   0.0000000E+00
  -0.1204217E+00   0.3998280E-01  -0.1000000E-02   0.0000000E+00   0.0000000E+00   0.0000000E+00   0.0000000E+00
  -0.1209702E+00   0.4016490E-01   0.0000000E+00   0.0000000E+00   0.0000000E+00   0.0000000E+00   0.0000000E+00
  -0.1245459E+00   0.2425530E-01  -0.1000000E-02   0.0000000E+00   0.0000000E+00   0.0000000E+00   0.0000000E+00
  -0.1251132E+00   0.2436580E-01   0.0000000E+00   0.0000000E+00   0.0000000E+00   0.0000000E+00   0.0000000E+00
  -0.1227360E+00   0.3218520E-01  -0.1000000E-02   0.0000000E+00   0.0000000E+00   0.0000000E+00   0.0000000E+00
  -0.1232950E+00   0.3233180E-01   0.0000000E+00   0.0000000E+00   0.0000000E+00   0.0000000E+00   0.0000000E+00
  -0.1258440E+00   0.1622580E-01  -0.1000000E-02   0.0000000E+00   0.0000000E+00   0.0000000E+00   0.0000000E+00
  -0.1264172E+00   0.1629970E-01   0.0000000E+00   0.0000000E+00   0.0000000E+00   0.0000000E+00   0.0000000E+00
  -0.1245459E+00   0.2425530E-01  -0.1000000E-02   0.0000000E+00   0.0000000E+00   0.0000000E+00   0.0000000E+00
  -0.1251132E+00   0.2436580E-01   0.0000000E+00   0.0000000E+00   0.0000000E+00   0.0000000E+00   0.0000000E+00
  -0.1266251E+00   0.8129600E-02  -0.1000000E-02   0.0000000E+00   0.0000000E+00   0.0000000E+00   0.0000000E+00
  -0.1272018E+00   0.8166600E-02   0.0000000E+00   0.0000000E+00   0.0000000E+00   0.0000000E+00   0.0000000E+00
  -0.1258440E+00   0.1622580E-01  -0.1000000E-02   0.0000000E+00   0.0000000E+00   0.0000000E+00   0.0000000E+00
  -0.1264172E+00   0.1629970E-01   0.0000000E+00   0.0000000E+00   0.0000000E+00   0.0000000E+00   0.0000000E+00
  -0.1268858E+00   0.0000000E+00  -0.1000000E-02   0.0000000E+00   0.0000000E+00   0.0000000E+00   0.0000000E+00
  -0.1274637E+00   0.0000000E+00   0.0000000E+00   0.0000000E+00   0.0000000E+00   0.0000000E+00   0.0000000E+00
  -0.1266251E+00   0.8129600E-02  -0.1000000E-02   0.0000000E+00   0.0000000E+00   0.0000000E+00   0.0000000E+00
  -0.1272018E+00   0.8166600E-02   0.0000000E+00   0.0000000E+00   0.0000000E+00   0.0000000E+00   0.0000000E+00
   0.1197534E+00   0.7688400E-02  -0.1100000E-01   0.0000000E+00   0.0000000E+00   0.0000000E+00   0.0000000E+00
   0.1266251E+00   0.8129600E-02  -0.1000000E-02   0.0000000E+00   0.0000000E+00   0.0000000E+00   0.0000000E+00
   0.1200000E+00   0.0000000E+00  -0.1100000E-01   0.0000000E+00   0.0000000E+00   0.0000000E+00   0.0000000E+00
   0.1268858E+00   0.0000000E+00  -0.1000000E-02   0.0000000E+00   0.0000000E+00   0.0000000E+00   0.0000000E+00
   0.1190148E+00   0.1534530E-01  -0.1100000E-01   0.0000000E+00   0.0000000E+00   0.0000000E+00   0.0000000E+00
   0.1258440E+00   0.1622580E-01  -0.1000000E-02   0.0000000E+00   0.0000000E+00   0.0000000E+00   0.0000000E+00
   0.1197534E+00   0.7688400E-02  -0.1100000E-01   0.0000000E+00   0.0000000E+00   0.0000000E+00   0.0000000E+00
   0.1266251E+00   0.8129600E-02  -0.1000000E-02   0.0000000E+00   0.0000000E+00   0.0000000E+00   0.0000000E+00
   0.1177871E+00   0.2293900E-01  -0.1100000E-01   0.0000000E+00   0.0000000E+00   0.0000000E+00   0.0000000E+00
   0.1245459E+00   0.2425530E-01  -0.1000000E-02   0.0000000E+00   0.0000000E+00   0.0000000E+00   0.0000000E+00
   0.1190148E+00   0.1534530E-01  -0.1100000E-01   0.0000000E+00   0.0000000E+00   0.0000000E+00   0.0000000E+00
   0.1258440E+00   0.1622580E-01  -0.1000000E-02   0.0000000E+00   0.0000000E+00   0.0000000E+00   0.0000000E+00
   0.1160754E+00   0.3043850E-01  -0.1100000E-01   0.0000000E+00   0.0000000E+00   0.0000000E+00   0.0000000E+00
   0.1227360E+00   0.3218520E-01  -0.1000000E-02   0.0000000E+00   0.0000000E+00   0.0000000E+00   0.0000000E+00
   0.1177871E+00   0.2293900E-01  -0.1100000E-01   0.0000000E+00   0.0000000E+00   0.0000000E+00   0.0000000E+00
   0.1245459E+00   0.2425530E-01  -0.1000000E-02   0.0000000E+00   0.0000000E+00   0.0000000E+00   0.0000000E+00
   0.1138867E+00   0.3781300E-01  -0.1100000E-01   0.0000000E+00   0.0000000E+00   0.0000000E+00   0.0000000E+00
   0.1204217E+00   0.3998280E-01  -0.1000000E-02   0.0000000E+00   0.0000000E+00   0.0000000E+00   0.0000000E+00
   0.1160754E+00   0.3043850E-01  -0.1100000E-01   0.0000000E+00   0.0000000E+00   0.0000000E+00   0.0000000E+00
   0.1227360E+00   0.3218520E-01  -0.1000000E-02   0.0000000E+00   0.0000000E+00   0.0000000E+00   0.0000000E+00
   0.1112300E+00   0.4503200E-01  -0.1100000E-01   0.0000000E+00   0.0000000E+00   0.0000000E+00   0.0000000E+00
   0.1176126E+00   0.4761600E-01  -0.1000000E-02   0.0000000E+00   0.0000000E+00   0.0000000E+00   0.0000000E+00
   0.1138867E+00   0.3781300E-01  -0.1100000E-01   0.0000000E+00   0.0000000E+00   0.0000000E+00   0.0000000E+00
   0.1204217E+00   0.3998280E-01  -0.1000000E-02   0.0000000E+00   0.0000000E+00   0.0000000E+00   0.0000000E+00
   0.1081163E+00   0.5206610E-01  -0.1100000E-01   0.0000000E+00   0.0000000E+00   0.0000000E+00   0.0000000E+00
   0.1143201E+00   0.5505370E-01  -0.1000000E-02   0.0000000E+00   0.0000000E+00   0.0000000E+00   0.0000000E+00
   0.1112300E+00   0.4503200E-01  -0.1100000E-01   0.0000000E+00   0.0000000E+00   0.0000000E+00   0.0000000E+00
   0.1176126E+00   0.4761600E-01  -0.1000000E-02   0.0000000E+00   0.0000000E+00   0.0000000E+00   0.0000000E+00
   0.1045582E+00   0.5888610E-01  -0.1100000E-01   0.0000000E+00   0.0000000E+00   0.0000000E+00   0.0000000E+00
   0.1105579E+00   0.6226510E-01  -0.1000000E-02   0.0000000E+00   0.0000000E+00   0.0000000E+00   0.0000000E+00
   0.1081163E+00   0.5206610E-01  -0.1100000E-01   0.0000000E+00   0.0000000E+00   0.0000000E+00   0.0000000E+00
   0.1143201E+00   0.5505370E-01  -0.1000000E-02   0.0000000E+00   0.0000000E+00   0.0000000E+00   0.0000000E+00
   0.1005706E+00   0.6546420E-01  -0.1100000E-01   0.0000000E+00   0.0000000E+00   0.0000000E+00   0.0000000E+00
   0.1063415E+00   0.6922060E-01  -0.1000000E-02   0.0000000E+00   0.0000000E+00   0.0000000E+00   0.0000000E+00
   0.1045582E+00   0.5888610E-01  -0.1100000E-01   0.0000000E+00   0.0000000E+00   0.0000000E+00   0.0000000E+00
   0.1105579E+00   0.6226510E-01  -0.1000000E-02   0.0000000E+00   0.0000000E+00   0.0000000E+00   0.0000000E+00
   0.9616960E-01   0.7177330E-01  -0.1100000E-01   0.0000000E+00   0.0000000E+00   0.0000000E+00   0.0000000E+00
   0.1016880E+00   0.7589170E-01  -0.1000000E-02   0.0000000E+00   0.0000000E+00   0.0000000E+00   0.0000000E+00
   0.1005706E+00   0.6546420E-01  -0.1100000E-01   0.0000000E+00   0.0000000E+00   0.0000000E+00   0.0000000E+00
   0.1063415E+00   0.6922060E-01  -0.1000000E-02   0.0000000E+00   0.0000000E+00   0.0000000E+00   0.0000000E+00
   0.9137350E-01   0.7778740E-01  -0.1100000E-01   0.0000000E+00   0.0000000E+00   0.0000000E+00   0.0000000E+00
   0.9661670E-01   0.8225100E-01  -0.1000000E-02   0.0000000E+00   0.0000000E+00   0.0000000E+00   0.0000000E+00
   0.9616960E-01   0.7177330E-01  -0.1100000E-01   0.0000000E+00   0.0000000E+00   0.0000000E+00   0.0000000E+00
   0.1016880E+00   0.7589170E-01  -0.1000000E-02   0.0000000E+00   0.0000000E+00   0.0000000E+00   0.0000000E+00
   0.8620190E-01   0.8348190E-01  -0.1100000E-01   0.0000000E+00   0.0000000E+00   0.0000000E+00   0.0000000E+00
   0.9114830E-01   0.8827220E-01  -0.1000000E-02   0.0000000E+00   0.0000000E+00   0.0000000E+00   0.0000000E+00
   0.9137350E-01   0.7778740E-01  -0.1100000E-01   0.0000000E+00   0.0000000E+00   0.0000000E+00   0.0000000E+00
   0.9661670E-01   0.8225100E-01  -0.1000000E-02   0.0000000E+00   0.0000000E+00   0.0000000E+00   0.0000000E+00
   0.8067610E-01   0.8883340E-01  -0.1100000E-01   0.0000000E+00   0.0000000E+00   0.0000000E+00   0.0000000E+00
   0.8530540E-01   0.9393080E-01  -0.1000000E-02   0.0000000E+00   0.0000000E+00   0.0000000E+00   0.0000000E+00
   0.8620190E-01   0.8348190E-01  -0.1100000E-01   0.0000000E+00   0.0000000E+00   0.0000000E+00   0.0000000E+00
   0.9114830E-01   0.8827220E-01  -0.1000000E-02   0.0000000E+00   0.0000000E+00   0.0000000E+00   0.0000000E+00
   0.7481880E-01   0.9381980E-01  -0.1100000E-01   0.0000000E+00   0.0000000E+00   0.0000000E+00   0.0000000E+00
   0.7911200E-01   0.9920330E-01  -0.1000000E-02   0.0000000E+00   0.0000000E+00   0.0000000E+00   0.0000000E+00
   0.8067610E-01   0.8883340E-01  -0.1100000E-01   0.0000000E+00   0.0000000E+00   0.0000000E+00   0.0000000E+00
   0.8530540E-01   0.9393080E-01  -0.1000000E-02   0.0000000E+00   0.0000000E+00   0.0000000E+00   0.0000000E+00
   0.6865400E-01   0.9842070E-01  -0.1100000E-01   0.0000000E+00   0.0000000E+00   0.0000000E+00   0.0000000E+00
   0.7259350E-01   0.1040682E+00  -0.1000000E-02   0.0000000E+00   0.0000000E+00   0.0000000E+00   0.0000000E+00
   0.7481880E-01   0.9381980E-01  -0.1100000E-01   0.0000000E+00   0.0000000E+00   0.0000000E+00   0.0000000E+00
   0.7911200E-01   0.9920330E-01  -0.1000000E-02   0.0000000E+00   0.0000000E+00   0.0000000E+00   0.0000000E+00
   0.6220710E-01   0.1026171E+00  -0.1100000E-01   0.0000000E+00   0.0000000E+00   0.0000000E+00   0.0000000E+00
   0.6577660E-01   0.1085055E+00  -0.1000000E-02   0.0000000E+00   0.0000000E+00   0.0000000E+00   0.0000000E+00
   0.6865400E-01   0.9842070E-01  -0.1100000E-01   0.0000000E+00   0.0000000E+00   0.0000000E+00   0.0000000E+00
   0.7259350E-01   0.1040682E+00  -0.1000000E-02   0.0000000E+00   0.0000000E+00   0.0000000E+00   0.0000000E+00
   0.5550460E-01   0.1063919E+00  -0.1100000E-01   0.0000000E+00   0.0000000E+00   0.0000000E+00   0.0000000E+00
   0.5868950E-01   0.1124968E+00  -0.1000000E-02   0.0000000E+00   0.0000000E+00   0.0000000E+00   0.0000000E+00