VARIABLES="w (rad/s)"
"abs(F   1   1)" "angle(F   1   1)"
"abs(F   1   2)" "angle(F   1   2)"
"abs(F   1   3)" "angle(F   1   3)"
Zone t="FKforce - beta =   0.000",I=    32,F=POINT
  0.1000000E+00  0.2101884E+04 -0.1570796E+01  0.1001106E+06 -0.3677451E-10  0.9320814E+02  0.1570741E+01
  0.2000000E+00  0.8328557E+04 -0.1570796E+01  0.9388311E+05 -0.1389597E-09  0.3842160E+03  0.1570795E+01
  0.3000000E+00  0.1844665E+05 -0.1570797E+01  0.8376228E+05 -0.2305917E-08  0.9061674E+03  0.1570793E+01
  0.4000000E+00  0.3207826E+05 -0.1570796E+01  0.7012312E+05  0.1436181E-08  0.1710977E+04  0.1570796E+01
  0.5000000E+00  0.4871766E+05 -0.1570796E+01  0.5346827E+05 -0.2268272E-08  0.2864516E+04  0.1570799E+01
  0.6000001E+00  0.6775233E+05 -0.1570796E+01  0.3440504E+05 -0.1478767E-07  0.4440001E+04  0.1570796E+01
  0.7000000E+00  0.8848940E+05 -0.1570796E+01  0.1362010E+05  0.6590597E-08  0.6510101E+04  0.1570796E+01
  0.8000001E+00  0.1101845E+06 -0.1570796E+01  0.8146574E+04 -0.3141593E+01  0.9137868E+04  0.1570797E+01
  0.9000000E+00  0.1320711E+06 -0.1570796E+01  0.3013806E+05  0.3141593E+01  0.1236778E+05  0.1570796E+01
  0.1000000E+01  0.1533946E+06 -0.1570796E+01  0.5160674E+05 -0.3141593E+01  0.1621640E+05  0.1570796E+01
  0.1100000E+01  0.1734358E+06 -0.1570796E+01  0.7184319E+05  0.3141593E+01  0.2066445E+05  0.1570796E+01
  0.1200000E+01  0.1915451E+06 -0.1570796E+01  0.9020830E+05 -0.3141593E+01  0.2565146E+05  0.1570796E+01
  0.1300000E+01  0.2071604E+06 -0.1570796E+01  0.1061499E+06  0.3141593E+01  0.3107190E+05  0.1570796E+01
  0.1400000E+01  0.2198270E+06 -0.1570796E+01  0.1192273E+06 -0.3141593E+01  0.3677585E+05  0.1570796E+01
  0.1500000E+01  0.2292144E+06 -0.1570796E+01  0.1291202E+06 -0.3141593E+01  0.4257278E+05  0.1570796E+01
  0.1600000E+01  0.2351186E+06 -0.1570796E+01  0.1356395E+06 -0.3141593E+01  0.4823964E+05  0.1570796E+01
  0.1700000E+01  0.2374674E+06 -0.1570796E+01  0.1387275E+06 -0.3141593E+01  0.5353180E+05  0.1570796E+01
  0.1800000E+01  0.2363167E+06 -0.1570796E+01  0.1384537E+06 -0.3141593E+01  0.5819798E+05  0.1570796E+01
  0.1900000E+01  0.2318380E+06 -0.1570796E+01  0.1350065E+06 -0.3141593E+01  0.6199521E+05  0.1570796E+01
  0.2000000E+01  0.2243078E+06 -0.1570796E+01  0.1286760E+06  0.3141593E+01  0.6470771E+05  0.1570796E+01
  0.2100000E+01  0.2140880E+06 -0.1570796E+01  0.1198398E+06 -0.3141593E+01  0.6616026E+05  0.1570796E+01
  0.2200000E+01  0.2016047E+06 -0.1570796E+01  0.1089388E+06 -0.3141593E+01  0.6623343E+05  0.1570796E+01
  0.2300000E+01  0.1873262E+06 -0.1570796E+01  0.9645579E+05  0.3141593E+01  0.6487360E+05  0.1570796E+01
  0.2400000E+01  0.1717402E+06 -0.1570796E+01  0.8289205E+05  0.3141593E+01  0.6209840E+05  0.1570796E+01
  0.2500000E+01  0.1553318E+06 -0.1570796E+01  0.6874448E+05 -0.3141593E+01  0.5799727E+05  0.1570796E+01
  0.2600000E+01  0.1385638E+06 -0.1570796E+01  0.5448592E+05 -0.3141593E+01  0.5272638E+05  0.1570796E+01
  0.2700000E+01  0.1218590E+06 -0.1570796E+01  0.4054704E+05 -0.3141593E+01  0.4649973E+05  0.1570796E+01
  0.2800000E+01  0.1055866E+06 -0.1570796E+01  0.2730287E+05 -0.3141593E+01  0.3957486E+05  0.1570796E+01
  0.2900000E+01  0.9005359E+05 -0.1570796E+01  0.1506231E+05  0.3141593E+01  0.3223658E+05  0.1570796E+01
  0.3000000E+01  0.7549926E+05 -0.1570796E+01  0.4063558E+04  0.3141593E+01  0.2477908E+05  0.1570796E+01
  0.3100000E+01  0.6209503E+05 -0.1570796E+01  0.5527736E+04 -0.7491026E-07  0.1748767E+05  0.1570796E+01
  0.3200000E+01  0.4994606E+05 -0.1570796E+01  0.1361562E+05 -0.9849050E-07  0.1062264E+05  0.1570796E+01
