VARIABLES="w (rad/s)"
"A   1   1" "B   1   1"
"A   1   2" "B   1   2"
"A   1   3" "B   1   3"
Zone t="Motion of body    1 in DoF   1",I=    32,F=POINT
  0.1000000E+00  0.1352916E+06  0.3028406E-02  0.2213717E-02 -0.2469091E-05 -0.1787974E+05 -0.2753332E-03
  0.2000000E+00  0.1374877E+06  0.3989245E+00  0.4877746E-02 -0.1926224E-04 -0.1808579E+05 -0.3249753E-01
  0.3000000E+00  0.1391224E+06  0.6686742E+01 -0.2639691E-02  0.1613987E-04 -0.1852213E+05 -0.5739123E+00
  0.4000000E+00  0.1416113E+06  0.4882490E+02 -0.3260076E-02  0.1585081E-03 -0.1917412E+05 -0.4500101E+01
  0.5000000E+00  0.1452150E+06  0.2258071E+03 -0.1169050E-01  0.5928858E-04 -0.2008740E+05 -0.2266239E+02
  0.6000001E+00  0.1502014E+06  0.7825767E+03 -0.2490977E-02  0.1077421E-03 -0.2135588E+05 -0.8650627E+02
  0.7000000E+00  0.1568691E+06  0.2225375E+04 -0.2049446E-01  0.9770961E-03 -0.2308685E+05 -0.2731155E+03
  0.8000001E+00  0.1655201E+06  0.5487672E+04 -0.2692893E-01 -0.6953496E-03 -0.2545921E+05 -0.7525322E+03
  0.9000000E+00  0.1761982E+06  0.1216800E+05 -0.2328820E-02  0.8113615E-02 -0.2853943E+05 -0.1867923E+04
  0.1000000E+01  0.1886597E+06  0.2486465E+05 -0.7915020E-02  0.8165434E-02 -0.3257320E+05 -0.4285371E+04
  0.1100000E+01  0.2016733E+06  0.4759645E+05 -0.4626783E-01 -0.9795442E-02 -0.3739204E+05 -0.9197310E+04
  0.1200000E+01  0.2123076E+06  0.8612446E+05 -0.2412488E-01 -0.8385628E-02 -0.4257208E+05 -0.1865235E+05
  0.1300000E+01  0.2136581E+06  0.1464615E+06  0.1056405E-01  0.1174861E-01 -0.4626342E+05 -0.3543892E+05
  0.1400000E+01  0.1938664E+06  0.2281742E+06  0.9102481E-04 -0.4287809E-02 -0.4448651E+05 -0.6141270E+05
  0.1500000E+01  0.1417794E+06  0.3088457E+06  0.2587398E-02 -0.1965311E-01 -0.3216355E+05 -0.9212636E+05
  0.1600000E+01  0.6705783E+05  0.3418352E+06  0.2125919E-01 -0.3192097E-02 -0.9367466E+04 -0.1126808E+06
  0.1700000E+01  0.3848170E+04  0.3049328E+06 -0.2270292E-01 -0.1145786E-01  0.1411218E+05 -0.1103722E+06
  0.1800000E+01 -0.2609665E+05  0.2295142E+06  0.1258320E-02  0.1588781E-01  0.2872935E+05 -0.9070109E+05
  0.1900000E+01 -0.2939705E+05  0.1552417E+06 -0.8099079E-02  0.2372159E-01  0.3400802E+05 -0.6649129E+05
  0.2000000E+01 -0.1970202E+05  0.9798995E+05 -0.7026196E-03 -0.7784598E-02  0.3346288E+05 -0.4500416E+05
  0.2100000E+01 -0.5949404E+04  0.5843773E+05 -0.6607147E-02  0.1679140E-01  0.3023067E+05 -0.2843632E+05
  0.2200000E+01  0.7703762E+04  0.3263657E+05  0.1039938E-02  0.1431485E-01  0.2607282E+05 -0.1649176E+05
  0.2300000E+01  0.1971504E+05  0.1664417E+05  0.3642207E-02  0.5826730E-02  0.2183462E+05 -0.8415508E+04
  0.2400000E+01  0.2965662E+05  0.7341118E+04 -0.1567304E-02 -0.5144518E-02  0.1801344E+05 -0.3339867E+04
  0.2500000E+01  0.3762870E+05  0.2425229E+04 -0.1931000E-02  0.1211000E-01  0.1476961E+05 -0.5279435E+03
  0.2600000E+01  0.4389787E+05  0.2484053E+03  0.4860071E-04  0.1465564E-01  0.1211079E+05  0.6460563E+03
  0.2700000E+01  0.4875724E+05 -0.2952411E+03  0.4185571E-04  0.6456966E-02  0.1003183E+05  0.7103329E+03
  0.2800000E+01  0.5250889E+05 -0.6785412E+02 -0.2420289E-02  0.1183622E-01  0.8460849E+04  0.1781186E+03
  0.2900000E+01  0.5541845E+05  0.4395547E+03  0.3826289E-02  0.5255753E-02  0.7312039E+04 -0.6629377E+03
  0.3000000E+01  0.5770408E+05  0.9293378E+03 -0.4484653E-03  0.1874189E-03  0.6505881E+04 -0.1596554E+04
  0.3100000E+01  0.5954617E+05  0.1217516E+04 -0.1156576E-01 -0.3541412E-03  0.5955859E+04 -0.2413246E+04
  0.3200000E+01  0.6109374E+05  0.1281477E+04 -0.9267628E-02 -0.1304293E-02  0.5565679E+04 -0.3024226E+04
Zone t="Motion of body    1 in DoF   2",I=    32,F=POINT
  0.1000000E+00  0.6130338E-02  0.3432971E-05  0.1314233E+06  0.4932552E+01  0.4434586E-03  0.4074536E-05
  0.2000000E+00  0.1036704E-01  0.4140381E-04  0.1315007E+06  0.3168391E+02 -0.2149343E-02  0.1993403E-04
  0.3000000E+00  0.6966590E-02 -0.8072704E-05  0.1324345E+06  0.7029951E+02  0.6834666E-03 -0.1765341E-03
  0.4000000E+00 -0.4961491E-02  0.1901984E-03  0.1338809E+06  0.7782227E+02 -0.1728535E-02  0.4658103E-04
  0.5000000E+00 -0.7730007E-02  0.2547093E-03  0.1360632E+06  0.2771239E+02 -0.1092911E-02 -0.4495382E-03
  0.6000001E+00  0.3716945E-02  0.1205701E-02  0.1394248E+06  0.1366434E+02  0.1767476E-02 -0.1137882E-02
  0.7000000E+00 -0.2768346E-01 -0.4043207E-02  0.1443653E+06  0.4006566E+03  0.7795606E-02  0.6437302E-03
  0.8000001E+00 -0.1902282E-02  0.2055168E-02  0.1510111E+06  0.2005436E+04 -0.1792908E-02  0.2264738E-02
  0.9000000E+00 -0.2667374E-02 -0.4520774E-02  0.1593303E+06  0.6274445E+04 -0.8543862E-02 -0.3941059E-03
  0.1000000E+01 -0.7956982E-02 -0.6153584E-02  0.1685602E+06  0.1535909E+05 -0.1230240E-02  0.2714634E-02
  0.1100000E+01 -0.6564487E-01 -0.1468658E-01  0.1770312E+06  0.3187456E+05  0.1359766E-01  0.6258011E-02
  0.1200000E+01 -0.3075321E-01 -0.8803010E-02  0.1816954E+06  0.5779968E+05  0.4121462E-02  0.2485275E-02
  0.1300000E+01  0.3144448E-01  0.9099126E-02  0.1792219E+06  0.9293726E+05 -0.3767747E-02  0.3619194E-02
  0.1400000E+01 -0.4128047E-03 -0.6160259E-02  0.1672338E+06  0.1329582E+06 -0.2141680E-02  0.1621246E-04
  0.1500000E+01 -0.4107348E-01 -0.4235435E-01  0.1462865E+06  0.1701953E+06  0.1104991E-01 -0.6487370E-03
  0.1600000E+01  0.2724230E-01  0.2515628E-01  0.1200766E+06  0.1966979E+06 -0.1647234E-01 -0.9925008E-02
  0.1700000E+01 -0.1915371E-01  0.8824766E-02  0.9362043E+05  0.2085921E+06  0.1691930E-02 -0.6669998E-02
  0.1800000E+01  0.1012219E-01  0.2997768E-01  0.7078645E+05  0.2065490E+06 -0.2295176E-02 -0.8452654E-02
  0.1900000E+01  0.5139803E-03  0.7210827E-01  0.5330281E+05  0.1940201E+06 -0.3943192E-02 -0.2632856E-01
  0.2000000E+01 -0.6955147E-02  0.2277195E-01  0.4130788E+05  0.1748128E+06  0.4913330E-02 -0.7751942E-02
  0.2100000E+01 -0.9111677E-02  0.6273448E-01  0.3411645E+05  0.1522270E+06  0.2165295E-02 -0.1867151E-01
  0.2200000E+01 -0.8850098E-02  0.3350353E-01  0.3075367E+05  0.1286242E+06  0.4796115E-02 -0.1045990E-01
  0.2300000E+01 -0.8109135E-02 -0.6485999E-02  0.3027888E+05  0.1056882E+06  0.2451358E-02  0.9372234E-03
  0.2400000E+01 -0.1385411E-01 -0.7618904E-02  0.3185140E+05  0.8453879E+05  0.6279945E-02  0.2861023E-02
  0.2500000E+01  0.4539490E-04  0.9362936E-02  0.3479037E+05  0.6576276E+05  0.4911804E-02 -0.3510952E-02
  0.2600000E+01 -0.1060046E-01  0.9776950E-02  0.3852977E+05  0.4972535E+05  0.4876944E-02 -0.2368808E-02
  0.2700000E+01  0.2204754E-02 -0.2042562E-01  0.4263518E+05  0.3649721E+05  0.3505283E-02  0.6484628E-02
  0.2800000E+01 -0.5571842E-02 -0.1307070E-02  0.4678494E+05  0.2585781E+05  0.5232947E-02  0.3415763E-02
  0.2900000E+01  0.3369759E-02 -0.2690554E-02  0.5081366E+05  0.1753041E+05  0.1769230E-02  0.2009451E-02
  0.3000000E+01  0.6939570E-03  0.1817816E-01  0.5457959E+05  0.1121484E+05  0.1364390E-02 -0.9036690E-02
  0.3100000E+01 -0.1357479E-01  0.1008196E-01  0.5806001E+05  0.6426764E+04  0.5362726E-02 -0.4818812E-03
  0.3200000E+01 -0.8603930E-02  0.3292854E-02  0.6147127E+05  0.2440146E+04  0.3600121E-03  0.1937523E-02
Zone t="Motion of body    1 in DoF   3",I=    32,F=POINT
  0.1000000E+00 -0.1738729E+05 -0.2907995E-03  0.1508892E-02  0.2072163E-05  0.3748186E+05  0.2810681E-04
  0.2000000E+00 -0.1765572E+05 -0.3155313E-01 -0.3640652E-02  0.4387804E-04  0.3765429E+05  0.2538024E-02
  0.3000000E+00 -0.1809848E+05 -0.5574496E+00 -0.7677078E-03 -0.1083712E-05  0.3782373E+05  0.4780950E-01
  0.4000000E+00 -0.1873204E+05 -0.4376836E+01  0.5524158E-02  0.8674525E-04  0.3798822E+05  0.4037450E+00
  0.5000000E+00 -0.1963337E+05 -0.2207877E+02  0.7126570E-02 -0.1541216E-03  0.3824726E+05  0.2216122E+01
  0.6000001E+00 -0.2088930E+05 -0.8443504E+02 -0.3138780E-02 -0.2751897E-03  0.3863418E+05  0.9333692E+01
  0.7000000E+00 -0.2261812E+05 -0.2670843E+03  0.9409530E-02  0.2725447E-03  0.3912223E+05  0.3277068E+02
  0.8000001E+00 -0.2491412E+05 -0.7363497E+03  0.1212746E-01  0.1514625E-02  0.3976071E+05  0.1009677E+03
  0.9000000E+00 -0.2799738E+05 -0.1832274E+04 -0.9854635E-03 -0.2214131E-02  0.4068516E+05  0.2812529E+03
  0.1000000E+01 -0.3192956E+05 -0.4204271E+04 -0.4331589E-02  0.1229414E-01  0.4187980E+05  0.7243588E+03
  0.1100000E+01 -0.3673410E+05 -0.9040072E+04 -0.5776232E-03  0.1631543E-01  0.4350394E+05  0.1746058E+04
  0.1200000E+01 -0.4182054E+05 -0.1834275E+05 -0.8080800E-02  0.6230675E-02  0.4548220E+05  0.3971131E+04
  0.1300000E+01 -0.4543121E+05 -0.3485916E+05  0.1311596E-01 -0.7329226E-02  0.4737946E+05  0.8429973E+04
  0.1400000E+01 -0.4373677E+05 -0.6048782E+05 -0.2064024E-02  0.5834378E-02  0.4813375E+05  0.1627140E+05
  0.1500000E+01 -0.3162969E+05 -0.9084155E+05 -0.2463897E-01  0.1343236E-01  0.4576867E+05  0.2707349E+05
  0.1600000E+01 -0.9136509E+04 -0.1110887E+06 -0.3512368E-01 -0.1433119E-02  0.3930785E+05  0.3658330E+05
  0.1700000E+01  0.1402157E+05 -0.1088241E+06  0.8063597E-02 -0.2834683E-01  0.3116038E+05  0.3931266E+05
  0.1800000E+01  0.2843629E+05 -0.8943428E+05  0.1628664E-02  0.3802549E-02  0.2493216E+05  0.3523798E+05
  0.1900000E+01  0.3362501E+05 -0.6552113E+05  0.2863533E-02 -0.2023480E-01  0.2168185E+05  0.2793309E+05
  0.2000000E+01  0.3308241E+05 -0.4433296E+05  0.1318550E-01 -0.1020791E-01  0.2075467E+05  0.2015600E+05
  0.2100000E+01  0.2988330E+05 -0.2800760E+05  0.2115113E-02  0.1200249E-02  0.2120147E+05  0.1336860E+05
  0.2200000E+01  0.2575206E+05 -0.1627081E+05  0.3824667E-02  0.8225529E-02  0.2243022E+05  0.8022089E+04
  0.2300000E+01  0.2156264E+05 -0.8350264E+04  0.1969545E-04 -0.5162500E-02  0.2403562E+05  0.4040564E+04
  0.2400000E+01  0.1779608E+05 -0.3407120E+04  0.8510947E-02 -0.1025081E-01  0.2567587E+05  0.1453527E+04
  0.2500000E+01  0.1460348E+05 -0.7274619E+03  0.6423378E-02  0.6033893E-02  0.2719300E+05  0.1534527E+03
  0.2600000E+01  0.1200317E+05  0.3284581E+03  0.2207023E-02  0.6596554E-02  0.2852256E+05  0.3933916E+02
  0.2700000E+01  0.9983787E+04  0.3131663E+03  0.3323202E-02 -0.8063861E-03  0.2957757E+05  0.7585881E+03
  0.2800000E+01  0.8456484E+04 -0.2220344E+03  0.4512412E-02  0.2389266E-02  0.3037326E+05  0.1895712E+04
  0.2900000E+01  0.7370995E+04 -0.1058871E+04 -0.1487239E-02  0.2630251E-02  0.3082557E+05  0.3464882E+04
  0.3000000E+01  0.6620451E+04 -0.1940141E+04 -0.7913907E-03  0.9777304E-03  0.3100962E+05  0.5189633E+04
  0.3100000E+01  0.6103652E+04 -0.2674904E+04 -0.3314172E-02 -0.8071628E-03  0.3099911E+05  0.6836708E+04
  0.3200000E+01  0.5727085E+04 -0.3241048E+04 -0.1549125E-02  0.5319528E-04  0.3087881E+05  0.8382430E+04
