 VARIABLES="Time (s)"
"AddedMass    1" "IRF    1"
"AddedMass    2" "IRF    2"
"AddedMass    3" "IRF    3"
Zone t="DoF    1",I=   160,F=POINT
  0.0000000E+00  0.1887898E+04  0.1677111E+04 -0.1622116E-03 -0.4567348E-03  0.7570899E+04  0.7190385E+04
  0.1000000E+00  0.1887898E+04  0.1618163E+04 -0.1622116E-03 -0.4449104E-03  0.7570899E+04  0.6937159E+04
  0.2000000E+00  0.1887898E+04  0.1445819E+04 -0.1622116E-03 -0.4103374E-03  0.7570899E+04  0.6196832E+04
  0.3000000E+00  0.1887898E+04  0.1173209E+04 -0.1622116E-03 -0.3556388E-03  0.7570899E+04  0.5025887E+04
  0.4000000E+00  0.1887898E+04  0.8210413E+03 -0.1622116E-03 -0.2849390E-03  0.7570899E+04  0.3513395E+04
  0.5000000E+00  0.1887898E+04  0.4159322E+03 -0.1622116E-03 -0.2035144E-03  0.7570899E+04  0.1773835E+04
  0.6000000E+00  0.1887898E+04 -0.1172159E+02 -0.1622116E-03 -0.1173483E-03  0.7570899E+04 -0.6207660E+02
  0.7000000E+00  0.1887898E+04 -0.4301651E+03 -0.1622116E-03 -0.3263012E-04  0.7570899E+04 -0.1857808E+04
  0.8000000E+00  0.1887898E+04 -0.8087954E+03 -0.1622116E-03  0.4475918E-04  0.7570899E+04 -0.3481820E+04
  0.9000000E+00  0.1887898E+04 -0.1120550E+04 -0.1622116E-03  0.1097281E-03  0.7570899E+04 -0.4817839E+04
  0.1000000E+01  0.1887898E+04 -0.1343984E+04 -0.1622116E-03  0.1583831E-03  0.7570899E+04 -0.5773798E+04
  0.1100000E+01  0.1887898E+04 -0.1464863E+04 -0.1622116E-03  0.1883273E-03  0.7570899E+04 -0.6288680E+04
  0.1200000E+01  0.1887898E+04 -0.1477147E+04 -0.1622116E-03  0.1988249E-03  0.7570899E+04 -0.6336751E+04
  0.1300000E+01  0.1887898E+04 -0.1383302E+04 -0.1622116E-03  0.1908198E-03  0.7570899E+04 -0.5928870E+04
  0.1400000E+01  0.1887898E+04 -0.1193906E+04 -0.1622116E-03  0.1668059E-03  0.7570899E+04 -0.5110797E+04
  0.1500000E+01  0.1887898E+04 -0.9266147E+03 -0.1622116E-03  0.1305649E-03  0.7570899E+04 -0.3958701E+04
  0.1600000E+01  0.1887898E+04 -0.6045656E+03 -0.1622116E-03  0.8679480E-04  0.7570899E+04 -0.2572308E+04
  0.1700000E+01  0.1887898E+04 -0.2543820E+03 -0.1622116E-03  0.4066476E-04  0.7570899E+04 -0.1066265E+04
  0.1800000E+01  0.1887898E+04  0.9606557E+02 -0.1622116E-03 -0.2664330E-05  0.7570899E+04  0.4394885E+03
  0.1900000E+01  0.1887898E+04  0.4199370E+03 -0.1622116E-03 -0.3850877E-04  0.7570899E+04  0.1829534E+04
  0.2000000E+01  0.1887898E+04  0.6935529E+03 -0.1622116E-03 -0.6307934E-04  0.7570899E+04  0.3002137E+04
  0.2100000E+01  0.1887898E+04  0.8982004E+03 -0.1622116E-03 -0.7381106E-04  0.7570899E+04  0.3877019E+04
  0.2200000E+01  0.1887898E+04  0.1021475E+04 -0.1622116E-03 -0.6957490E-04  0.7570899E+04  0.4401115E+04
  0.2300000E+01  0.1887898E+04  0.1058057E+04 -0.1622116E-03 -0.5075641E-04  0.7570899E+04  0.4551897E+04
  0.2400000E+01  0.1887898E+04  0.1009868E+04 -0.1622116E-03 -0.1919316E-04  0.7570899E+04  0.4338025E+04
  0.2500000E+01  0.1887898E+04  0.8856212E+03 -0.1622116E-03  0.2201755E-04  0.7570899E+04  0.3797391E+04
  0.2600000E+01  0.1887898E+04  0.6998156E+03 -0.1622116E-03  0.6882672E-04  0.7570899E+04  0.2992747E+04
  0.2700000E+01  0.1887898E+04  0.4712812E+03 -0.1622116E-03  0.1166223E-03  0.7570899E+04  0.2005438E+04
  0.2800000E+01  0.1887898E+04  0.2214095E+03 -0.1622116E-03  0.1606668E-03  0.7570899E+04  0.9277508E+03
  0.2900000E+01  0.1887898E+04 -0.2776291E+02 -0.1622116E-03  0.1965413E-03  0.7570899E+04 -0.1453484E+03
  0.3000000E+01  0.1887898E+04 -0.2554475E+03 -0.1622116E-03  0.2205546E-03  0.7570899E+04 -0.1124370E+04
  0.3100000E+01  0.1887898E+04 -0.4438209E+03 -0.1622116E-03  0.2300834E-03  0.7570899E+04 -0.1932694E+04
  0.3200000E+01  0.1887898E+04 -0.5794061E+03 -0.1622116E-03  0.2238116E-03  0.7570899E+04 -0.2512511E+04
  0.3300000E+01  0.1887898E+04 -0.6540280E+03 -0.1622116E-03  0.2018475E-03  0.7570899E+04 -0.2828921E+04
  0.3400000E+01  0.1887898E+04 -0.6652603E+03 -0.1622116E-03  0.1657126E-03  0.7570899E+04 -0.2871829E+04
  0.3500000E+01  0.1887898E+04 -0.6163528E+03 -0.1622116E-03  0.1182015E-03  0.7570899E+04 -0.2655619E+04
  0.3600000E+01  0.1887898E+04 -0.5156630E+03 -0.1622116E-03  0.6312885E-04  0.7570899E+04 -0.2216663E+04
  0.3700000E+01  0.1887898E+04 -0.3756602E+03 -0.1622116E-03  0.4988649E-05  0.7570899E+04 -0.1609016E+04
  0.3800000E+01  0.1887898E+04 -0.2116091E+03 -0.1622116E-03 -0.5144589E-04  0.7570899E+04 -0.8987162E+03
  0.3900000E+01  0.1887898E+04 -0.4006108E+02 -0.1622116E-03 -0.1015408E-03  0.7570899E+04 -0.1572665E+03
  0.4000000E+01  0.1887898E+04  0.1226990E+03 -0.1622116E-03 -0.1412027E-03  0.7570899E+04  0.5450682E+03
  0.4100000E+01  0.1887898E+04  0.2621174E+03 -0.1622116E-03 -0.1672266E-03  0.7570899E+04  0.1145578E+04
  0.4200000E+01  0.1887898E+04  0.3666097E+03 -0.1622116E-03 -0.1775604E-03  0.7570899E+04  0.1594437E+04
  0.4300000E+01  0.1887898E+04  0.4284720E+03 -0.1622116E-03 -0.1714631E-03  0.7570899E+04  0.1858625E+04
  0.4400000E+01  0.1887898E+04  0.4444006E+03 -0.1622116E-03 -0.1495450E-03  0.7570899E+04  0.1924145E+04
  0.4500000E+01  0.1887898E+04  0.4155811E+03 -0.1622116E-03 -0.1136888E-03  0.7570899E+04  0.1796392E+04
  0.4600000E+01  0.1887898E+04  0.3473571E+03 -0.1622116E-03 -0.6686064E-04  0.7570899E+04  0.1498694E+04
  0.4700000E+01  0.1887898E+04  0.2485303E+03 -0.1622116E-03 -0.1283148E-04  0.7570899E+04  0.1069283E+04
  0.4800000E+01  0.1887898E+04  0.1303709E+03 -0.1622116E-03  0.4416323E-04  0.7570899E+04  0.5569932E+03
  0.4900000E+01  0.1887898E+04  0.5434057E+01 -0.1622116E-03  0.9979706E-04  0.7570899E+04  0.1615174E+02
  0.5000000E+01  0.1887898E+04 -0.1136894E+03 -0.1622116E-03  0.1500196E-03  0.7570899E+04 -0.4988269E+03
  0.5100000E+01  0.1887898E+04 -0.2155730E+03 -0.1622116E-03  0.1913870E-03  0.7570899E+04 -0.9386209E+03
  0.5200000E+01  0.1887898E+04 -0.2909952E+03 -0.1622116E-03  0.2213252E-03  0.7570899E+04 -0.1263487E+04
  0.5300000E+01  0.1887898E+04 -0.3337261E+03 -0.1622116E-03  0.2383055E-03  0.7570899E+04 -0.1446652E+04
  0.5400000E+01  0.1887898E+04 -0.3410006E+03 -0.1622116E-03  0.2419185E-03  0.7570899E+04 -0.1476336E+04
  0.5500000E+01  0.1887898E+04 -0.3136369E+03 -0.1622116E-03  0.2328408E-03  0.7570899E+04 -0.1356253E+04
  0.5600000E+01  0.1887898E+04 -0.2558103E+03 -0.1622116E-03  0.2127046E-03  0.7570899E+04 -0.1104620E+04
  0.5700000E+01  0.1887898E+04 -0.1745114E+03 -0.1622116E-03  0.1838829E-03  0.7570899E+04 -0.7517935E+03
  0.5800000E+01  0.1887898E+04 -0.7875706E+02 -0.1622116E-03  0.1492159E-03  0.7570899E+04 -0.3368573E+03
  0.5900000E+01  0.1887898E+04  0.2136770E+02 -0.1622116E-03  0.1117059E-03  0.7570899E+04  0.9653058E+02
  0.6000000E+01  0.1887898E+04  0.1157355E+03 -0.1622116E-03  0.7420943E-04  0.7570899E+04  0.5045750E+03
  0.6100000E+01  0.1887898E+04  0.1951656E+03 -0.1622116E-03  0.3916363E-04  0.7570899E+04  0.8476148E+03
  0.6200000E+01  0.1887898E+04  0.2522895E+03 -0.1622116E-03  0.8362876E-05  0.7570899E+04  0.1093860E+04
  0.6300000E+01  0.1887898E+04  0.2822049E+03 -0.1622116E-03 -0.1718111E-04  0.7570899E+04  0.1222212E+04
  0.6400000E+01  0.1887898E+04  0.2828739E+03 -0.1622116E-03 -0.3729526E-04  0.7570899E+04  0.1223973E+04
  0.6500000E+01  0.1887898E+04  0.2552198E+03 -0.1622116E-03 -0.5260500E-04  0.7570899E+04  0.1103255E+04
  0.6600000E+01  0.1887898E+04  0.2029374E+03 -0.1622116E-03 -0.6440620E-04  0.7570899E+04  0.8761457E+03
  0.6700000E+01  0.1887898E+04  0.1320360E+03 -0.1622116E-03 -0.7446700E-04  0.7570899E+04  0.5687236E+03
  0.6800000E+01  0.1887898E+04  0.5017358E+02 -0.1622116E-03 -0.8477447E-04  0.7570899E+04  0.2141723E+03
  0.6900000E+01  0.1887898E+04 -0.3415429E+02 -0.1622116E-03 -0.9725937E-04  0.7570899E+04 -0.1507322E+03
  0.7000000E+01  0.1887898E+04 -0.1124782E+03 -0.1622116E-03 -0.1135238E-03  0.7570899E+04 -0.4893595E+03
  0.7100000E+01  0.1887898E+04 -0.1771870E+03 -0.1622116E-03 -0.1346021E-03  0.7570899E+04 -0.7688205E+03
  0.7200000E+01  0.1887898E+04 -0.2222567E+03 -0.1622116E-03 -0.1607802E-03  0.7570899E+04 -0.9631163E+03
  0.7300000E+01  0.1887898E+04 -0.2437931E+03 -0.1622116E-03 -0.1914931E-03  0.7570899E+04 -0.1055478E+04
  0.7400000E+01  0.1887898E+04 -0.2403540E+03 -0.1622116E-03 -0.2253124E-03  0.7570899E+04 -0.1039753E+04
  0.7500000E+01  0.1887898E+04 -0.2130203E+03 -0.1622116E-03 -0.2600281E-03  0.7570899E+04 -0.9207020E+03
  0.7600000E+01  0.1887898E+04 -0.1652116E+03 -0.1622116E-03 -0.2928175E-03  0.7570899E+04 -0.7131949E+03
  0.7700000E+01  0.1887898E+04 -0.1022811E+03 -0.1622116E-03 -0.3204902E-03  0.7570899E+04 -0.4404517E+03
  0.7800000E+01  0.1887898E+04 -0.3093122E+02 -0.1622116E-03 -0.3397797E-03  0.7570899E+04 -0.1315079E+03
  0.7900000E+01  0.1887898E+04  0.4149173E+02 -0.1622116E-03 -0.3476667E-03  0.7570899E+04  0.1818390E+03
  0.8000000E+01  0.1887898E+04  0.1077394E+03 -0.1622116E-03 -0.3416920E-03  0.7570899E+04  0.4682390E+03
  0.8100000E+01  0.1887898E+04  0.1613826E+03 -0.1622116E-03 -0.3202360E-03  0.7570899E+04  0.6999090E+03
  0.8200000E+01  0.1887898E+04  0.1974205E+03 -0.1622116E-03 -0.2827375E-03  0.7570899E+04  0.8552617E+03
  0.8300000E+01  0.1887898E+04  0.2127420E+03 -0.1622116E-03 -0.2298241E-03  0.7570899E+04  0.9208997E+03
  0.8400001E+01  0.1887898E+04  0.2063807E+03 -0.1622116E-03 -0.1633479E-03  0.7570899E+04  0.8927089E+03
  0.8500000E+01  0.1887898E+04  0.1795554E+03 -0.1622116E-03 -0.8631586E-04  0.7570899E+04  0.7760282E+03
  0.8600000E+01  0.1887898E+04  0.1354878E+03 -0.1622116E-03 -0.2711326E-05  0.7570899E+04  0.5848557E+03
  0.8700000E+01  0.1887898E+04  0.7903340E+02 -0.1622116E-03  0.8276149E-04  0.7570899E+04  0.3402441E+03
  0.8800000E+01  0.1887898E+04  0.1615203E+02 -0.1622116E-03  0.1650162E-03  0.7570899E+04  0.6800780E+02
  0.8900001E+01  0.1887898E+04 -0.4670777E+02 -0.1622116E-03  0.2389526E-03  0.7570899E+04 -0.2039440E+03
  0.9000000E+01  0.1887898E+04 -0.1032695E+03 -0.1622116E-03  0.2998468E-03  0.7570899E+04 -0.4484640E+03
  0.9100000E+01  0.1887898E+04 -0.1480439E+03 -0.1622116E-03  0.3437194E-03  0.7570899E+04 -0.6418302E+03
  0.9200000E+01  0.1887898E+04 -0.1768549E+03 -0.1622116E-03  0.3676473E-03  0.7570899E+04 -0.7660151E+03
  0.9300000E+01  0.1887898E+04 -0.1872270E+03 -0.1622116E-03  0.3700086E-03  0.7570899E+04 -0.8103585E+03
  0.9400001E+01  0.1887898E+04 -0.1785833E+03 -0.1622116E-03  0.3506237E-03  0.7570899E+04 -0.7724193E+03
  0.9500000E+01  0.1887898E+04 -0.1522617E+03 -0.1622116E-03  0.3107930E-03  0.7570899E+04 -0.6580396E+03
  0.9600000E+01  0.1887898E+04 -0.1113297E+03 -0.1622116E-03  0.2532164E-03  0.7570899E+04 -0.4805383E+03
  0.9700000E+01  0.1887898E+04 -0.6024056E+02 -0.1622116E-03  0.1818158E-03  0.7570899E+04 -0.2592187E+03
  0.9800000E+01  0.1887898E+04 -0.4351427E+01 -0.1622116E-03  0.1014557E-03  0.7570899E+04 -0.1728203E+02
  0.9900001E+01  0.1887898E+04  0.5062759E+02 -0.1622116E-03  0.1760537E-04  0.7570899E+04  0.2205598E+03
  0.1000000E+02  0.1887898E+04  0.9921492E+02 -0.1622116E-03 -0.6405020E-04  0.7570899E+04  0.4305994E+03
  0.1010000E+02  0.1887898E+04  0.1366996E+03 -0.1622116E-03 -0.1380105E-03  0.7570899E+04  0.5924764E+03
  0.1020000E+02  0.1887898E+04  0.1595900E+03 -0.1622116E-03 -0.1993358E-03  0.7570899E+04  0.6911187E+03
  0.1030000E+02  0.1887898E+04  0.1659368E+03 -0.1622116E-03 -0.2439863E-03  0.7570899E+04  0.7181354E+03
  0.1040000E+02  0.1887898E+04  0.1554894E+03 -0.1622116E-03 -0.2690805E-03  0.7570899E+04  0.6724863E+03
  0.1050000E+02  0.1887898E+04  0.1296851E+03 -0.1622116E-03 -0.2730734E-03  0.7570899E+04  0.5604351E+03
  0.1060000E+02  0.1887898E+04  0.9146142E+02 -0.1622116E-03 -0.2558303E-03  0.7570899E+04  0.3947296E+03
  0.1070000E+02  0.1887898E+04  0.4493375E+02 -0.1622116E-03 -0.2186010E-03  0.7570899E+04  0.1932051E+03
  0.1080000E+02  0.1887898E+04 -0.5047584E+01 -0.1622116E-03 -0.1638940E-03  0.7570899E+04 -0.2313490E+02
  0.1090000E+02  0.1887898E+04 -0.5339385E+02 -0.1622116E-03 -0.9527210E-04  0.7570899E+04 -0.2322690E+03
  0.1100000E+02  0.1887898E+04 -0.9529571E+02 -0.1622116E-03 -0.1707911E-04  0.7570899E+04 -0.4133977E+03
  0.1110000E+02  0.1887898E+04 -0.1266978E+03 -0.1622116E-03  0.6587689E-04  0.7570899E+04 -0.5489948E+03
  0.1120000E+02  0.1887898E+04 -0.1446839E+03 -0.1622116E-03  0.1486492E-03  0.7570899E+04 -0.6264733E+03
  0.1130000E+02  0.1887898E+04 -0.1477497E+03 -0.1622116E-03  0.2264845E-03  0.7570899E+04 -0.6393605E+03
  0.1140000E+02  0.1887898E+04 -0.1359149E+03 -0.1622116E-03  0.2951060E-03  0.7570899E+04 -0.5877797E+03
  0.1150000E+02  0.1887898E+04 -0.1106955E+03 -0.1622116E-03  0.3509610E-03  0.7570899E+04 -0.4783279E+03
  0.1160000E+02  0.1887898E+04 -0.7491080E+02 -0.1622116E-03  0.3913953E-03  0.7570899E+04 -0.3232350E+03
  0.1170000E+02  0.1887898E+04 -0.3238219E+02 -0.1622116E-03  0.4147556E-03  0.7570899E+04 -0.1390591E+03
  0.1180000E+02  0.1887898E+04  0.1247967E+02 -0.1622116E-03  0.4204199E-03  0.7570899E+04  0.5510219E+02
  0.1190000E+02  0.1887898E+04  0.5512271E+02 -0.1622116E-03  0.4087515E-03  0.7570899E+04  0.2395511E+03
  0.1200000E+02  0.1887898E+04  0.9131498E+02 -0.1622116E-03  0.3809961E-03  0.7570899E+04  0.3959862E+03
  0.1210000E+02  0.1887898E+04  0.1175645E+03 -0.1622116E-03  0.3391256E-03  0.7570899E+04  0.5093169E+03
  0.1220000E+02  0.1887898E+04  0.1314468E+03 -0.1622116E-03  0.2856564E-03  0.7570899E+04  0.5690801E+03
  0.1230000E+02  0.1887898E+04  0.1318322E+03 -0.1622116E-03  0.2234436E-03  0.7570899E+04  0.5704199E+03
  0.1240000E+02  0.1887898E+04  0.1189667E+03 -0.1622116E-03  0.1554851E-03  0.7570899E+04  0.5144333E+03
  0.1250000E+02  0.1887898E+04  0.9442304E+02 -0.1622116E-03  0.8473913E-04  0.7570899E+04  0.4079574E+03
  0.1260000E+02  0.1887898E+04  0.6090788E+02 -0.1622116E-03  0.1396764E-04  0.7570899E+04  0.2627300E+03
  0.1270000E+02  0.1887898E+04  0.2197663E+02 -0.1622116E-03 -0.5437887E-04  0.7570899E+04  0.9415460E+02
  0.1280000E+02  0.1887898E+04 -0.1835111E+02 -0.1622116E-03 -0.1182390E-03  0.7570899E+04 -0.8036691E+02
  0.1290000E+02  0.1887898E+04 -0.5599477E+02 -0.1622116E-03 -0.1759766E-03  0.7570899E+04 -0.2431778E+03
  0.1300000E+02  0.1887898E+04 -0.8723074E+02 -0.1622116E-03 -0.2263813E-03  0.7570899E+04 -0.3781754E+03
  0.1310000E+02  0.1887898E+04 -0.1090536E+03 -0.1622116E-03 -0.2686405E-03  0.7570899E+04 -0.4723739E+03
  0.1320000E+02  0.1887898E+04 -0.1194656E+03 -0.1622116E-03 -0.3022866E-03  0.7570899E+04 -0.5171530E+03
  0.1330000E+02  0.1887898E+04 -0.1176564E+03 -0.1622116E-03 -0.3271403E-03  0.7570899E+04 -0.5090354E+03
  0.1340000E+02  0.1887898E+04 -0.1040577E+03 -0.1622116E-03 -0.3432426E-03  0.7570899E+04 -0.4499177E+03
  0.1350000E+02  0.1887898E+04 -0.8027745E+02 -0.1622116E-03 -0.3508026E-03  0.7570899E+04 -0.3467849E+03
  0.1360000E+02  0.1887898E+04 -0.4891327E+02 -0.1622116E-03 -0.3501505E-03  0.7570899E+04 -0.2108990E+03
  0.1370000E+02  0.1887898E+04 -0.1327125E+02 -0.1622116E-03 -0.3417128E-03  0.7570899E+04 -0.5658156E+02
  0.1380000E+02  0.1887898E+04  0.2298052E+02 -0.1622116E-03 -0.3259977E-03  0.7570899E+04  0.1002880E+03
  0.1390000E+02  0.1887898E+04  0.5618433E+02 -0.1622116E-03 -0.3036027E-03  0.7570899E+04  0.2438843E+03
  0.1400000E+02  0.1887898E+04  0.8306660E+02 -0.1622116E-03 -0.2752269E-03  0.7570899E+04  0.3600517E+03
  0.1410000E+02  0.1887898E+04  0.1010534E+03 -0.1622116E-03 -0.2416901E-03  0.7570899E+04  0.4376700E+03
  0.1420000E+02  0.1887898E+04  0.1085144E+03 -0.1622116E-03 -0.2039534E-03  0.7570899E+04  0.4697071E+03
  0.1430000E+02  0.1887898E+04  0.1049127E+03 -0.1622116E-03 -0.1631271E-03  0.7570899E+04  0.4538649E+03
  0.1440000E+02  0.1887898E+04  0.9083244E+02 -0.1622116E-03 -0.1204686E-03  0.7570899E+04  0.3926972E+03
  0.1450000E+02  0.1887898E+04  0.6790027E+02 -0.1622116E-03 -0.7736097E-04  0.7570899E+04  0.2932662E+03
  0.1460000E+02  0.1887898E+04  0.3859810E+02 -0.1622116E-03 -0.3527106E-04  0.7570899E+04  0.1663304E+03
  0.1470000E+02  0.1887898E+04  0.6001464E+01 -0.1622116E-03  0.4306709E-05  0.7570899E+04  0.2521083E+02
  0.1480000E+02  0.1887898E+04 -0.2654826E+02 -0.1622116E-03  0.3993066E-04  0.7570899E+04 -0.1156283E+03
  0.1490000E+02  0.1887898E+04 -0.5577488E+02 -0.1622116E-03  0.7029234E-04  0.7570899E+04 -0.2420133E+03
  0.1500000E+02  0.1887898E+04 -0.7880877E+02 -0.1622116E-03  0.9431154E-04  0.7570899E+04 -0.3415364E+03
  0.1510000E+02  0.1887898E+04 -0.9345532E+02 -0.1622116E-03  0.1112159E-03  0.7570899E+04 -0.4047175E+03
  0.1520000E+02  0.1887898E+04 -0.9840838E+02 -0.1622116E-03  0.1206158E-03  0.7570899E+04 -0.4259255E+03
  0.1530000E+02  0.1887898E+04 -0.9336365E+02 -0.1622116E-03  0.1225540E-03  0.7570899E+04 -0.4038663E+03
  0.1540000E+02  0.1887898E+04 -0.7902688E+02 -0.1622116E-03  0.1175271E-03  0.7570899E+04 -0.3416173E+03
  0.1550000E+02  0.1887898E+04 -0.5702652E+02 -0.1622116E-03  0.1064791E-03  0.7570899E+04 -0.2462456E+03
  0.1560000E+02  0.1887898E+04 -0.2972608E+02 -0.1622116E-03  0.9075658E-04  0.7570899E+04 -0.1279951E+03
  0.1570000E+02  0.1887898E+04  0.1959323E-01 -0.1622116E-03  0.7203378E-04  0.7570899E+04  0.7702462E+00
  0.1580000E+02  0.1887898E+04  0.2917150E+02 -0.1622116E-03  0.5220601E-04  0.7570899E+04  0.1268965E+03
  0.1590000E+02  0.1887898E+04  0.5480817E+02 -0.1622116E-03  0.3326602E-04  0.7570899E+04  0.2377453E+03
Zone t="DoF    2",I=   160,F=POINT
  0.0000000E+00  0.6812406E-04 -0.7797951E-04  0.7527949E+04  0.1542865E+05  0.4478193E-04 -0.3577113E-03
  0.1000000E+00  0.6812406E-04 -0.7319527E-04  0.7527949E+04  0.1502417E+05  0.4478193E-04 -0.3350853E-03
  0.2000000E+00  0.6812406E-04 -0.5928655E-04  0.7527949E+04  0.1383751E+05  0.4478193E-04 -0.2694348E-03
  0.3000000E+00  0.6812406E-04 -0.3754582E-04  0.7527949E+04  0.1194702E+05  0.4478193E-04 -0.1672334E-03
  0.4000000E+00  0.6812406E-04 -0.9998881E-05  0.7527949E+04  0.9476752E+04  0.4478193E-04 -0.3859380E-04
  0.5000000E+00  0.6812406E-04  0.2077564E-04  0.7527949E+04  0.6587307E+04  0.4478193E-04  0.1036804E-03
  0.6000000E+00  0.6812406E-04  0.5187609E-04  0.7527949E+04  0.3463960E+04  0.4478193E-04  0.2452979E-03
  0.7000000E+00  0.6812406E-04  0.8033607E-04  0.7527949E+04  0.3031357E+03  0.4478193E-04  0.3718235E-03
  0.8000000E+00  0.6812406E-04  0.1033888E-03  0.7527949E+04 -0.2701761E+04  0.4478193E-04  0.4700406E-03
  0.9000000E+00  0.6812406E-04  0.1187137E-03  0.7527949E+04 -0.5374025E+04  0.4478193E-04  0.5292034E-03
  0.1000000E+01  0.6812406E-04  0.1246434E-03  0.7527949E+04 -0.7565806E+04  0.4478193E-04  0.5420654E-03
  0.1100000E+01  0.6812406E-04  0.1203132E-03  0.7527949E+04 -0.9167811E+04  0.4478193E-04  0.5055852E-03
  0.1200000E+01  0.6812406E-04  0.1057397E-03  0.7527949E+04 -0.1011584E+05  0.4478193E-04  0.4212478E-03
  0.1300000E+01  0.6812406E-04  0.8182264E-04  0.7527949E+04 -0.1039375E+05  0.4478193E-04  0.2949689E-03
  0.1400000E+01  0.6812406E-04  0.5026893E-04  0.7527949E+04 -0.1003264E+05  0.4478193E-04  0.1365912E-03
  0.1500000E+01  0.6812406E-04  0.1344699E-04  0.7527949E+04 -0.9106485E+04  0.4478193E-04 -0.4098111E-04
  0.1600000E+01  0.6812406E-04 -0.2581524E-04  0.7527949E+04 -0.7724667E+04  0.4478193E-04 -0.2229286E-03
  0.1700000E+01  0.6812406E-04 -0.6447158E-04  0.7527949E+04 -0.6022013E+04  0.4478193E-04 -0.3938423E-03
  0.1800000E+01  0.6812406E-04 -0.9951571E-04  0.7527949E+04 -0.4147323E+04  0.4478193E-04 -0.5391035E-03
  0.1900000E+01  0.6812406E-04 -0.1282338E-03  0.7527949E+04 -0.2251273E+04  0.4478193E-04 -0.6461947E-03
  0.2000000E+01  0.6812406E-04 -0.1484300E-03  0.7527949E+04 -0.4747380E+03  0.4478193E-04 -0.7058195E-03
  0.2100000E+01  0.6812406E-04 -0.1586042E-03  0.7527949E+04  0.1061548E+04  0.4478193E-04 -0.7127338E-03
  0.2200000E+01  0.6812406E-04 -0.1580695E-03  0.7527949E+04  0.2265221E+04  0.4478193E-04 -0.6662089E-03
  0.2300000E+01  0.6812406E-04 -0.1469977E-03  0.7527949E+04  0.3077822E+04  0.4478193E-04 -0.5700920E-03
  0.2400000E+01  0.6812406E-04 -0.1263911E-03  0.7527949E+04  0.3477246E+04  0.4478193E-04 -0.4324525E-03
  0.2500000E+01  0.6812406E-04 -0.9798493E-04  0.7527949E+04  0.3477118E+04  0.4478193E-04 -0.2648588E-03
  0.2600000E+01  0.6812406E-04 -0.6408815E-04  0.7527949E+04  0.3123222E+04  0.4478193E-04 -0.8134131E-04
  0.2700000E+01  0.6812406E-04 -0.2738061E-04  0.7527949E+04  0.2487455E+04  0.4478193E-04  0.1028503E-03
  0.2800000E+01  0.6812406E-04  0.9317840E-05  0.7527949E+04  0.1659912E+04  0.4478193E-04  0.2725927E-03
  0.2900000E+01  0.6812406E-04  0.4328351E-04  0.7527949E+04  0.7398783E+03  0.4478193E-04  0.4142073E-03
  0.3000000E+01  0.6812406E-04  0.7210995E-04  0.7527949E+04 -0.1734292E+03  0.4478193E-04  0.5166334E-03
  0.3100000E+01  0.6812406E-04  0.9389628E-04  0.7527949E+04 -0.9896093E+03  0.4478193E-04  0.5723598E-03
  0.3200000E+01  0.6812406E-04  0.1073854E-03  0.7527949E+04 -0.1634513E+04  0.4478193E-04  0.5780220E-03
  0.3300000E+01  0.6812406E-04  0.1120430E-03  0.7527949E+04 -0.2055838E+04  0.4478193E-04  0.5346244E-03
  0.3400000E+01  0.6812406E-04  0.1080709E-03  0.7527949E+04 -0.2226433E+04  0.4478193E-04  0.4473678E-03
  0.3500000E+01  0.6812406E-04  0.9635731E-04  0.7527949E+04 -0.2145166E+04  0.4478193E-04  0.3251072E-03
  0.3600000E+01  0.6812406E-04  0.7836878E-04  0.7527949E+04 -0.1835384E+04  0.4478193E-04  0.1794904E-03
  0.3700000E+01  0.6812406E-04  0.5599709E-04  0.7527949E+04 -0.1341226E+04  0.4478193E-04  0.2386682E-04
  0.3800000E+01  0.6812406E-04  0.3137518E-04  0.7527949E+04 -0.7222230E+03  0.4478193E-04 -0.1279363E-03
  0.3900000E+01  0.6812406E-04  0.6680512E-05  0.7527949E+04 -0.4676645E+02  0.4478193E-04 -0.2628535E-03
  0.4000000E+01  0.6812406E-04 -0.1605573E-04  0.7527949E+04  0.6148915E+03  0.4478193E-04 -0.3697209E-03
  0.4100000E+01  0.6812406E-04 -0.3511749E-04  0.7527949E+04  0.1197477E+04  0.4478193E-04 -0.4402193E-03
  0.4200000E+01  0.6812406E-04 -0.4923518E-04  0.7527949E+04  0.1646698E+04  0.4478193E-04 -0.4695333E-03
  0.4300000E+01  0.6812406E-04 -0.5766949E-04  0.7527949E+04  0.1923908E+04  0.4478193E-04 -0.4566744E-03
  0.4400000E+01  0.6812406E-04 -0.6024267E-04  0.7527949E+04  0.2009097E+04  0.4478193E-04 -0.4044466E-03
  0.4500000E+01  0.6812406E-04 -0.5731528E-04  0.7527949E+04  0.1901938E+04  0.4478193E-04 -0.3190618E-03
  0.4600000E+01  0.6812406E-04 -0.4971434E-04  0.7527949E+04  0.1620912E+04  0.4478193E-04 -0.2094532E-03
  0.4700000E+01  0.6812406E-04 -0.3862134E-04  0.7527949E+04  0.1200682E+04  0.4478193E-04 -0.8635503E-04
  0.4800000E+01  0.6812406E-04 -0.2543325E-04  0.7527949E+04  0.6880327E+03  0.4478193E-04  0.3875430E-04
  0.4900000E+01  0.6812406E-04 -0.1160999E-04  0.7527949E+04  0.1368070E+03  0.4478193E-04  0.1547545E-03
  0.5000000E+01  0.6812406E-04  0.1474406E-05  0.7527949E+04 -0.3976290E+03  0.4478193E-04  0.2519107E-03
  0.5100000E+01  0.6812406E-04  0.1266421E-04  0.7527949E+04 -0.8638154E+03  0.4478193E-04  0.3227436E-03
  0.5200000E+01  0.6812406E-04  0.2112373E-04  0.7527949E+04 -0.1219059E+04  0.4478193E-04  0.3626517E-03
  0.5300000E+01  0.6812406E-04  0.2640116E-04  0.7527949E+04 -0.1433229E+04  0.4478193E-04  0.3702420E-03
  0.5400000E+01  0.6812406E-04  0.2844838E-04  0.7527949E+04 -0.1491221E+04  0.4478193E-04  0.3473368E-03
  0.5500000E+01  0.6812406E-04  0.2759723E-04  0.7527949E+04 -0.1393830E+04  0.4478193E-04  0.2986676E-03
  0.5600000E+01  0.6812406E-04  0.2449583E-04  0.7527949E+04 -0.1157078E+04  0.4478193E-04  0.2312896E-03
  0.5700000E+01  0.6812406E-04  0.2001323E-04  0.7527949E+04 -0.8100660E+03  0.4478193E-04  0.1537820E-03
  0.5800000E+01  0.6812406E-04  0.1512373E-04  0.7527949E+04 -0.3916505E+03  0.4478193E-04  0.7531834E-04
  0.5900000E+01  0.6812406E-04  0.1078348E-04  0.7527949E+04  0.5372179E+02  0.4478193E-04  0.4697478E-05
  0.6000000E+01  0.6812406E-04  0.7812181E-05  0.7527949E+04  0.4805897E+03  0.4478193E-04 -0.5056879E-04
  0.6100000E+01  0.6812406E-04  0.6794465E-05  0.7527949E+04  0.8469576E+03  0.4478193E-04 -0.8501095E-04
  0.6200000E+01  0.6812406E-04  0.8008335E-05  0.7527949E+04  0.1118315E+04  0.4478193E-04 -0.9574615E-04
  0.6300000E+01  0.6812406E-04  0.1139123E-04  0.7527949E+04  0.1270756E+04  0.4478193E-04 -0.8273720E-04
  0.6400000E+01  0.6812406E-04  0.1654426E-04  0.7527949E+04  0.1292990E+04  0.4478193E-04 -0.4876391E-04
  0.6500000E+01  0.6812406E-04  0.2277623E-04  0.7527949E+04  0.1187016E+04  0.4478193E-04  0.9042273E-06
  0.6600000E+01  0.6812406E-04  0.2918081E-04  0.7527949E+04  0.9674808E+03  0.4478193E-04  0.5908777E-04
  0.6700000E+01  0.6812406E-04  0.3473982E-04  0.7527949E+04  0.6598257E+03  0.4478193E-04  0.1174761E-03
  0.6800000E+01  0.6812406E-04  0.3844111E-04  0.7527949E+04  0.2974306E+03  0.4478193E-04  0.1675244E-03
  0.6900000E+01  0.6812406E-04  0.3939893E-04  0.7527949E+04 -0.8195477E+02  0.4478193E-04  0.2013808E-03
  0.7000000E+01  0.6812406E-04  0.3696340E-04  0.7527949E+04 -0.4400777E+03  0.4478193E-04  0.2127470E-03
  0.7100000E+01  0.6812406E-04  0.3080774E-04  0.7527949E+04 -0.7419690E+03  0.4478193E-04  0.1975882E-03
  0.7200000E+01  0.6812406E-04  0.2098413E-04  0.7527949E+04 -0.9593281E+03  0.4478193E-04  0.1546233E-03
  0.7300000E+01  0.6812406E-04  0.7940895E-05  0.7527949E+04 -0.1073098E+04  0.4478193E-04  0.8554142E-04
  0.7400000E+01  0.6812406E-04 -0.7501089E-05  0.7527949E+04 -0.1075098E+04  0.4478193E-04 -0.5078045E-05
  0.7500000E+01  0.6812406E-04 -0.2421072E-04  0.7527949E+04 -0.9685040E+03  0.4478193E-04 -0.1101320E-03
  0.7600000E+01  0.6812406E-04 -0.4084352E-04  0.7527949E+04 -0.7672002E+03  0.4478193E-04 -0.2206213E-03
  0.7700000E+01  0.6812406E-04 -0.5596330E-04  0.7527949E+04 -0.4940882E+03  0.4478193E-04 -0.3264768E-03
  0.7800000E+01  0.6812406E-04 -0.6817665E-04  0.7527949E+04 -0.1785664E+03  0.4478193E-04 -0.4175013E-03
  0.7900000E+01  0.6812406E-04 -0.7626936E-04  0.7527949E+04  0.1465929E+03  0.4478193E-04 -0.4843533E-03
  0.8000000E+01  0.6812406E-04 -0.7932894E-04  0.7527949E+04  0.4485682E+03  0.4478193E-04 -0.5194605E-03
  0.8100000E+01  0.6812406E-04 -0.7684337E-04  0.7527949E+04  0.6977864E+03  0.4478193E-04 -0.5177897E-03
  0.8200000E+01  0.6812406E-04 -0.6876482E-04  0.7527949E+04  0.8707368E+03  0.4478193E-04 -0.4773918E-03
  0.8300000E+01  0.6812406E-04 -0.5553192E-04  0.7527949E+04  0.9521720E+03  0.4478193E-04 -0.3996715E-03
  0.8400001E+01  0.6812406E-04 -0.3804830E-04  0.7527949E+04  0.9363823E+03  0.4478193E-04 -0.2893523E-03
  0.8500000E+01  0.6812406E-04 -0.1761762E-04  0.7527949E+04  0.8275242E+03  0.4478193E-04 -0.1541398E-03
  0.8600000E+01  0.6812406E-04  0.4160066E-05  0.7527949E+04  0.6389282E+03  0.4478193E-04 -0.4099475E-05
  0.8700000E+01  0.6812406E-04  0.2551921E-04  0.7527949E+04  0.3915430E+03  0.4478193E-04  0.1491702E-03
  0.8800000E+01  0.6812406E-04  0.4467943E-04  0.7527949E+04  0.1116332E+03  0.4478193E-04  0.2935326E-03
  0.8900001E+01  0.6812406E-04  0.5999910E-04  0.7527949E+04 -0.1719445E+03  0.4478193E-04  0.4173510E-03
  0.9000000E+01  0.6812406E-04  0.7012015E-04  0.7527949E+04 -0.4307319E+03  0.4478193E-04  0.5105028E-03
  0.9100000E+01  0.6812406E-04  0.7409146E-04  0.7527949E+04 -0.6394557E+03  0.4478193E-04  0.5652703E-03
  0.9200000E+01  0.6812406E-04  0.7145691E-04  0.7527949E+04 -0.7784803E+03  0.4478193E-04  0.5770187E-03
  0.9300000E+01  0.6812406E-04  0.6230431E-04  0.7527949E+04 -0.8356396E+03  0.4478193E-04  0.5446211E-03
  0.9400001E+01  0.6812406E-04  0.4726690E-04  0.7527949E+04 -0.8072410E+03  0.4478193E-04  0.4705746E-03
  0.9500000E+01  0.6812406E-04  0.2747978E-04  0.7527949E+04 -0.6982490E+03  0.4478193E-04  0.3608104E-03
  0.9600000E+01  0.6812406E-04  0.4491721E-05  0.7527949E+04 -0.5215593E+03  0.4478193E-04  0.2241989E-03
  0.9700000E+01  0.6812406E-04 -0.1985554E-04  0.7527949E+04 -0.2965298E+03  0.4478193E-04  0.7182008E-04
  0.9800000E+01  0.6812406E-04 -0.4357604E-04  0.7527949E+04 -0.4688139E+02  0.4478193E-04 -0.8397090E-04
  0.9900001E+01  0.6812406E-04 -0.6469832E-04  0.7527949E+04  0.2017647E+03  0.4478193E-04 -0.2305657E-03
  0.1000000E+02  0.6812406E-04 -0.8142503E-04  0.7527949E+04  0.4244953E+03  0.4478193E-04 -0.3561536E-03
  0.1010000E+02  0.6812406E-04 -0.9227846E-04  0.7527949E+04  0.5995952E+03  0.4478193E-04 -0.4506964E-03
  0.1020000E+02  0.6812406E-04 -0.9621849E-04  0.7527949E+04  0.7106115E+03  0.4478193E-04 -0.5067383E-03
  0.1030000E+02  0.6812406E-04 -0.9272688E-04  0.7527949E+04  0.7479059E+03  0.4478193E-04 -0.5200045E-03
  0.1040000E+02  0.6812406E-04 -0.8184864E-04  0.7527949E+04  0.7094339E+03  0.4478193E-04 -0.4897179E-03
  0.1050000E+02  0.6812406E-04 -0.6418873E-04  0.7527949E+04  0.6008047E+03  0.4478193E-04 -0.4186286E-03
  0.1060000E+02  0.6812406E-04 -0.4086441E-04  0.7527949E+04  0.4345063E+03  0.4478193E-04 -0.3127449E-03
  0.1070000E+02  0.6812406E-04 -0.1341962E-04  0.7527949E+04  0.2285354E+03  0.4478193E-04 -0.1808073E-03
  0.1080000E+02  0.6812406E-04  0.1629445E-04  0.7527949E+04  0.4438970E+01  0.4478193E-04 -0.3353675E-04
  0.1090000E+02  0.6812406E-04  0.4625835E-04  0.7527949E+04 -0.2148889E+03  0.4478193E-04  0.1172547E-03
  0.1100000E+02  0.6812406E-04  0.7443478E-04  0.7527949E+04 -0.4075537E+03  0.4478193E-04  0.2596304E-03
  0.1110000E+02  0.6812406E-04  0.9891760E-04  0.7527949E+04 -0.5548301E+03  0.4478193E-04  0.3824884E-03
  0.1120000E+02  0.6812406E-04  0.1180653E-03  0.7527949E+04 -0.6429467E+03  0.4478193E-04  0.4764161E-03
  0.1130000E+02  0.6812406E-04  0.1306146E-03  0.7527949E+04 -0.6643792E+03  0.4478193E-04  0.5344071E-03
  0.1140000E+02  0.6812406E-04  0.1357586E-03  0.7527949E+04 -0.6184462E+03  0.4478193E-04  0.5523426E-03
  0.1150000E+02  0.6812406E-04  0.1331939E-03  0.7527949E+04 -0.5112503E+03  0.4478193E-04  0.5292482E-03
  0.1160000E+02  0.6812406E-04  0.1231250E-03  0.7527949E+04 -0.3548859E+03  0.4478193E-04  0.4672720E-03
  0.1170000E+02  0.6812406E-04  0.1062357E-03  0.7527949E+04 -0.1661382E+03  0.4478193E-04  0.3714339E-03