VARIABLES="w (rad/s)"
"abs(F   1   1)" "angle(F   1   1)"
"abs(F   1   2)" "angle(F   1   2)"
"abs(F   1   3)" "angle(F   1   3)"
Zone t="Diffraction force - beta =   0.000 deg",I=    32,F=POINT
  0.1000000E+00  0.7496531E+00 -0.1570796E+01  0.4447655E+01 -0.3140130E+01  0.2502740E+01 -0.1570796E+01
  0.2000000E+00  0.2993566E+01 -0.1570796E+01  0.1790080E+02 -0.3135798E+01  0.9994169E+01 -0.1570796E+01
  0.3000000E+00  0.6717317E+01 -0.1570796E+01  0.4055141E+02 -0.3128715E+01  0.2242733E+02 -0.1570796E+01
  0.4000000E+00  0.1189870E+02 -0.1570795E+01  0.7278677E+02 -0.3119100E+01  0.3972327E+02 -0.1570795E+01
  0.5000000E+00  0.1850902E+02 -0.1570793E+01  0.1146598E+03 -0.3107096E+01  0.6179040E+02 -0.1570793E+01
  0.6000001E+00  0.2649522E+02 -0.1570785E+01  0.1664351E+03 -0.3092946E+01  0.8845183E+02 -0.1570785E+01
  0.7000000E+00  0.3588087E+02 -0.1570769E+01  0.2289032E+03 -0.3077076E+01  0.1197921E+03 -0.1570768E+01
  0.8000001E+00  0.4658836E+02 -0.1570735E+01  0.3009153E+03 -0.3059362E+01  0.1555490E+03 -0.1570735E+01
  0.9000000E+00  0.5838885E+02 -0.1570674E+01  0.3832190E+03 -0.3040275E+01  0.1949581E+03 -0.1570673E+01
  0.1000000E+01  0.7133035E+02 -0.1570569E+01  0.4747854E+03 -0.3019793E+01  0.2381747E+03 -0.1570566E+01
  0.1100000E+01  0.8507062E+02 -0.1570398E+01  0.5767310E+03 -0.2998529E+01  0.2840233E+03 -0.1570394E+01
  0.1200000E+01  0.1003110E+03 -0.1570136E+01  0.6870401E+03 -0.2976233E+01  0.3349587E+03 -0.1570130E+01
  0.1300000E+01  0.1154864E+03 -0.1569746E+01  0.8068972E+03 -0.2953563E+01  0.3855641E+03 -0.1569736E+01
  0.1400000E+01  0.1320719E+03 -0.1569188E+01  0.9346840E+03 -0.2930419E+01  0.4409495E+03 -0.1569172E+01
  0.1500000E+01  0.1492007E+03 -0.1568417E+01  0.1068328E+04 -0.2906576E+01  0.4981923E+03 -0.1568394E+01
  0.1600000E+01  0.1665555E+03 -0.1567363E+01  0.1210985E+04 -0.2883259E+01  0.5560935E+03 -0.1567329E+01
  0.1700000E+01  0.1836000E+03 -0.1565959E+01  0.1359179E+04 -0.2859867E+01  0.6129277E+03 -0.1565911E+01
  0.1800000E+01  0.2017579E+03 -0.1564168E+01  0.1511709E+04 -0.2836414E+01  0.6736221E+03 -0.1564101E+01
  0.1900000E+01  0.2197134E+03 -0.1561887E+01  0.1668159E+04 -0.2813121E+01  0.7335389E+03 -0.1561795E+01
  0.2000000E+01  0.2367429E+03 -0.1559014E+01  0.1828836E+04 -0.2790406E+01  0.7903157E+03 -0.1558890E+01
  0.2100000E+01  0.2531810E+03 -0.1555478E+01  0.1994851E+04 -0.2768952E+01  0.8450868E+03 -0.1555313E+01
  0.2200000E+01  0.2692588E+03 -0.1551229E+01  0.2159598E+04 -0.2747129E+01  0.8986486E+03 -0.1551012E+01
  0.2300000E+01  0.2845002E+03 -0.1546184E+01  0.2324784E+04 -0.2725696E+01  0.9494844E+03 -0.1545906E+01
  0.2400000E+01  0.2985621E+03 -0.1540266E+01  0.2491628E+04 -0.2705323E+01  0.9963248E+03 -0.1539913E+01
  0.2500000E+01  0.3105360E+03 -0.1533351E+01  0.2658635E+04 -0.2685875E+01  0.1035967E+04 -0.1532901E+01
  0.2600000E+01  0.3195414E+03 -0.1525298E+01  0.2825332E+04 -0.2667478E+01  0.1065656E+04 -0.1524728E+01
  0.2700000E+01  0.3269458E+03 -0.1516331E+01  0.2989009E+04 -0.2649433E+01  0.1090041E+04 -0.1515624E+01
  0.2800000E+01  0.3321841E+03 -0.1506447E+01  0.3150412E+04 -0.2632273E+01  0.1107137E+04 -0.1505577E+01
  0.2900000E+01  0.3338983E+03 -0.1495487E+01  0.3307656E+04 -0.2615458E+01  0.1112248E+04 -0.1494415E+01
  0.3000000E+01  0.3317504E+03 -0.1483503E+01  0.3461181E+04 -0.2599343E+01  0.1104403E+04 -0.1482188E+01
  0.3100000E+01  0.3254689E+03 -0.1470583E+01  0.3611286E+04 -0.2584391E+01  0.1082582E+04 -0.1468967E+01
  0.3200000E+01  0.3146061E+03 -0.1456826E+01  0.3757665E+04 -0.2570992E+01  0.1045270E+04 -0.1454830E+01
