VARIABLES="w (rad/s)"
"A   1   1" "B   1   1"
"A   1   2" "B   1   2"
"A   1   3" "B   1   3"
Zone t="Motion of body    1 in DoF   1",I=    32,F=POINT
  0.1000000E+00  0.7501501E+02  0.9052353E-09 -0.6929040E-05  0.1522589E-08  0.2504402E+03  0.2943979E-08
  0.2000000E+00  0.7503806E+02  0.2436932E-06 -0.1013279E-04 -0.1705721E-07  0.2505200E+03  0.8190021E-06
  0.3000000E+00  0.7508483E+02  0.3951491E-05 -0.8940696E-06 -0.6380604E-08  0.2506917E+03  0.1330182E-04
  0.4000000E+00  0.7516396E+02  0.2996842E-04  0.4097819E-06  0.4098410E-09  0.2509374E+03  0.1009691E-03
  0.5000000E+00  0.7528325E+02  0.1408360E-03  0.1370907E-04  0.1690186E-06  0.2513344E+03  0.4743790E-03
  0.6000001E+00  0.7539603E+02  0.5019278E-03 -0.1226862E-04 -0.3003538E-06  0.2517164E+03  0.1690920E-02
  0.7000000E+00  0.7568259E+02  0.1467406E-02  0.0000000E+00 -0.2277038E-06  0.2526935E+03  0.4943828E-02
  0.8000001E+00  0.7601575E+02  0.3713539E-02 -0.5308538E-04 -0.3876145E-05  0.2538269E+03  0.1251222E-01
  0.9000000E+00  0.7616907E+02  0.8397070E-02 -0.5579657E-04 -0.5803224E-05  0.2543595E+03  0.2829484E-01
  0.1000000E+01  0.7638448E+02  0.1739211E-01 -0.1913309E-04 -0.4011839E-05  0.2550940E+03  0.5860862E-01
  0.1100000E+01  0.7642085E+02  0.3351333E-01 -0.7347627E-04 -0.1249666E-04  0.2551992E+03  0.1129407E+00
  0.1200000E+01  0.7698865E+02  0.6096095E-01 -0.2037982E-03 -0.4550707E-04  0.2571487E+03  0.2054641E+00
  0.1300000E+01  0.7692048E+02  0.1052827E+00  0.1444725E-03  0.3380619E-04  0.2568906E+03  0.3548700E+00
  0.1400000E+01  0.7739542E+02  0.1744928E+00 -0.1793674E-03 -0.5720253E-04  0.2585022E+03  0.5882138E+00
  0.1500000E+01  0.7786707E+02  0.2786631E+00  0.3394683E-03  0.1311263E-03  0.2601264E+03  0.9394978E+00
  0.1600000E+01  0.7826196E+02  0.4307673E+00 -0.7465482E-04 -0.3495603E-04  0.2614471E+03  0.1452454E+01
  0.1700000E+01  0.7845121E+02  0.6466191E+00 -0.1865976E-03 -0.1005055E-03  0.2620755E+03  0.2180490E+01
  0.1800000E+01  0.7912923E+02  0.9470111E+00  0.1064936E-03  0.6420538E-04  0.2644025E+03  0.3193948E+01
  0.1900000E+01  0.7977617E+02  0.1355287E+01 -0.3137087E-04 -0.2229214E-04  0.2665898E+03  0.4571501E+01
  0.2000000E+01  0.8023145E+02  0.1898798E+01  0.3421307E-04  0.2312101E-04  0.2681268E+03  0.6405677E+01
  0.2100000E+01  0.8071564E+02  0.2609983E+01 -0.1748403E-04 -0.2738275E-04  0.2697619E+03  0.8806141E+01
  0.2200000E+01  0.8137301E+02  0.3524624E+01 -0.2871860E-04 -0.2937950E-04  0.2719859E+03  0.1189382E+02
  0.2300000E+01  0.8212581E+02  0.4683005E+01 -0.3985737E-04 -0.4527904E-04  0.2745593E+03  0.1580540E+02
  0.2400000E+01  0.8294227E+02  0.6130013E+01 -0.3943840E-04 -0.5208701E-04  0.2773425E+03  0.2069258E+02
  0.2500000E+01  0.8363969E+02  0.7912096E+01  0.4291534E-05 -0.2011657E-06  0.2796825E+03  0.2671209E+02
  0.2600000E+01  0.8409219E+02  0.1007486E+02 -0.1150828E-04 -0.1541525E-04  0.2812098E+03  0.3401973E+02
  0.2700000E+01  0.8476734E+02  0.1265602E+02 -0.3311369E-05  0.1232699E-04  0.2835150E+03  0.4274309E+02
  0.2800000E+01  0.8559364E+02  0.1570288E+02  0.1562493E-04  0.5967915E-05  0.2863384E+03  0.5304252E+02
  0.2900000E+01  0.8629194E+02  0.1926086E+02 -0.5183549E-04 -0.1061037E-03  0.2887076E+03  0.6507144E+02
  0.3000000E+01  0.8688848E+02  0.2336372E+02 -0.1430511E-04 -0.4415959E-04  0.2907473E+03  0.7894685E+02
  0.3100000E+01  0.8738986E+02  0.2804328E+02  0.1949649E-04  0.7938594E-04  0.2924594E+03  0.9477721E+02
  0.3200000E+01  0.8775966E+02  0.3331961E+02 -0.3091991E-05 -0.2776086E-04  0.2937235E+03  0.1126333E+03
Zone t="Motion of body    1 in DoF   2",I=    32,F=POINT
  0.1000000E+00  0.1236796E-04 -0.1309672E-09  0.4447672E+03  0.6505972E-01 -0.3695488E-04  0.9895302E-09
  0.2000000E+00  0.1490116E-05  0.1979060E-08  0.4475241E+03  0.5187244E+00 -0.3635883E-04  0.2700835E-07
  0.3000000E+00  0.1460314E-04 -0.4656613E-08  0.4505611E+03  0.1740775E+01 -0.2066294E-04 -0.2514571E-07
  0.4000000E+00 -0.1013279E-04 -0.1154840E-06  0.4548522E+03  0.4093104E+01  0.8642673E-05 -0.5885959E-06
  0.5000000E+00  0.8463860E-05 -0.2067536E-06  0.4584499E+03  0.7910758E+01  0.1430511E-05 -0.7450581E-08
  0.6000001E+00  0.5960464E-06  0.5215406E-07  0.4619034E+03  0.1349284E+02 -0.3973642E-06  0.1490116E-06
  0.7000000E+00  0.3235681E-05  0.9313226E-07  0.4663600E+03  0.2109167E+02  0.2418246E-04  0.1922250E-05
  0.8000001E+00 -0.1281500E-04  0.5960464E-06  0.4688504E+03  0.3091380E+02 -0.4380941E-04  0.2443790E-05
  0.9000000E+00 -0.1152357E-04  0.1192093E-05  0.4710366E+03  0.4310087E+02 -0.3125933E-04 -0.4172325E-06
  0.1000000E+01 -0.5006790E-05  0.1341105E-06  0.4717424E+03  0.5774496E+02 -0.1621246E-04 -0.1490116E-06
  0.1100000E+01 -0.5418604E-06 -0.1192093E-06  0.4723869E+03  0.7485146E+02  0.0000000E+00 -0.6973743E-05
  0.1200000E+01 -0.4827976E-04  0.5364418E-06  0.4714132E+03  0.9440120E+02 -0.1573563E-03  0.5245209E-05
  0.1300000E+01  0.8353820E-04  0.2384186E-06  0.4700513E+03  0.1162660E+03  0.2362178E-03 -0.1013279E-05
  0.1400000E+01 -0.3423010E-04  0.2682209E-06  0.4675638E+03  0.1403067E+03 -0.1062666E-03  0.1192093E-06
  0.1500000E+01  0.1516342E-03  0.4321337E-05  0.4633462E+03  0.1663790E+03  0.5321503E-03  0.9536743E-06
  0.1600000E+01 -0.3710389E-04 -0.6377697E-05  0.4592772E+03  0.1941155E+03 -0.1561642E-03 -0.1990795E-04
  0.1700000E+01 -0.5385455E-04  0.7390976E-05  0.4540860E+03  0.2233340E+03 -0.1907349E-03 -0.1549721E-05
  0.1800000E+01  0.6106165E-04 -0.1442432E-04  0.4478073E+03  0.2537829E+03  0.2100733E-03 -0.3862381E-04
  0.1900000E+01 -0.1129351E-04  0.7033348E-05  0.4407221E+03  0.2851656E+03  0.2258702E-04  0.3361702E-04
  0.2000000E+01  0.3063679E-04 -0.5960464E-07  0.4332045E+03  0.3171226E+03  0.2789497E-04 -0.2384186E-06
  0.2100000E+01  0.1237506E-04 -0.7390976E-05  0.4258272E+03  0.3491658E+03 -0.9082613E-06  0.1382828E-04
  0.2200000E+01 -0.3207814E-04 -0.2264977E-05  0.4171960E+03  0.3815041E+03 -0.7694418E-04  0.1668930E-05
  0.2300000E+01 -0.5079352E-05  0.7629395E-05  0.4080635E+03  0.4137394E+03 -0.2073205E-05  0.2002716E-04
  0.2400000E+01 -0.1569589E-04  0.7152557E-06  0.3989919E+03  0.4454246E+03 -0.5046526E-04 -0.4768372E-06
  0.2500000E+01  0.1058579E-04 -0.1072884E-04  0.3898592E+03  0.4763590E+03  0.6141663E-04  0.1668930E-04
  0.2600000E+01  0.8528050E-05  0.1621246E-04  0.3807179E+03  0.5063256E+03  0.1760629E-04  0.9536743E-06
  0.2700000E+01 -0.8035589E-05  0.3206730E-04  0.3713097E+03  0.5354977E+03 -0.2366525E-04 -0.3814697E-05
  0.2800000E+01  0.5619866E-05  0.8940697E-05  0.3619852E+03  0.5634987E+03  0.6811960E-06  0.3767014E-04
  0.2900000E+01 -0.1792250E-04 -0.1180172E-04  0.3525578E+03  0.5905361E+03 -0.1269373E-03 -0.1430511E-04
  0.3000000E+01  0.1192093E-05  0.2563000E-04  0.3432021E+03  0.6164174E+03 -0.3846486E-04 -0.8583069E-05
  0.3100000E+01  0.8921470E-05 -0.1227856E-04  0.3341526E+03  0.6407605E+03  0.2153458E-05  0.2384186E-05
  0.3200000E+01  0.1490116E-06 -0.1549721E-04  0.3255324E+03  0.6631561E+03 -0.1400709E-04  0.2288818E-04
Zone t="Motion of body    1 in DoF   3",I=    32,F=POINT
  0.1000000E+00  0.2504543E+03  0.3863870E-08 -0.2369285E-04 -0.4103359E-08  0.8380894E+03  0.1289330E-07
  0.2000000E+00  0.2505335E+03  0.8178540E-06  0.3308058E-04  0.4102150E-07  0.8383619E+03  0.2746438E-05
  0.3000000E+00  0.2507058E+03  0.1334085E-04  0.4986922E-04  0.7725241E-07  0.8389873E+03  0.4491247E-04
  0.4000000E+00  0.2509505E+03  0.1008162E-03  0.4023314E-04  0.2458477E-06  0.8397493E+03  0.3396636E-03
  0.5000000E+00  0.2513453E+03  0.4737234E-03  0.7200241E-04  0.1134589E-05  0.8410632E+03  0.1595680E-02
  0.6000001E+00  0.2517302E+03  0.1689150E-02  0.1490116E-04  0.3991499E-06  0.8423725E+03  0.5690481E-02
  0.7000000E+00  0.2527051E+03  0.4938808E-02 -0.1924379E-04 -0.1120647E-05  0.8456943E+03  0.1663935E-01
  0.8000001E+00  0.2538390E+03  0.1249992E-01 -0.1351535E-03 -0.8587478E-05  0.8495535E+03  0.4211658E-01
  0.9000000E+00  0.2543737E+03  0.2826558E-01 -0.1023875E-03 -0.1538434E-04  0.8514089E+03  0.9524390E-01
  0.1000000E+01  0.2551051E+03  0.5854785E-01 -0.1013279E-04 -0.2620276E-05  0.8538979E+03  0.1972972E+00
  0.1100000E+01  0.2552061E+03  0.1128264E+00 -0.1596321E-03 -0.2838555E-04  0.8541801E+03  0.3802280E+00
  0.1200000E+01  0.2571628E+03  0.2052523E+00 -0.7058183E-03 -0.1488448E-03  0.8609017E+03  0.6917868E+00
  0.1300000E+01  0.2568936E+03  0.3545268E+00  0.5419438E-03  0.1396220E-03  0.8598910E+03  0.1194982E+01
  0.1400000E+01  0.2585084E+03  0.5876411E+00 -0.5509172E-03 -0.1820207E-03  0.8653792E+03  0.1980933E+01
  0.1500000E+01  0.2601343E+03  0.9385704E+00  0.1291434E-02  0.4911269E-03  0.8709705E+03  0.3164341E+01
  0.1600000E+01  0.2614497E+03  0.1451069E+01 -0.2723932E-03 -0.1188251E-03  0.8753721E+03  0.4892687E+01
  0.1700000E+01  0.2620722E+03  0.2178487E+01 -0.6034795E-03 -0.2993168E-03  0.8774332E+03  0.7346159E+01
  0.1800000E+01  0.2644030E+03  0.3190907E+01  0.4147159E-03  0.2577752E-03  0.8854318E+03  0.1076185E+02
  0.1900000E+01  0.2665909E+03  0.4567235E+01 -0.7905458E-04 -0.3347732E-04  0.8928353E+03  0.1540568E+02
  0.2000000E+01  0.2681218E+03  0.6399947E+01  0.1506805E-03  0.8917600E-04  0.8979976E+03  0.2159051E+02
  0.2100000E+01  0.2697515E+03  0.8798415E+01 -0.2599898E-04 -0.7268786E-04  0.9035001E+03  0.2968606E+02
  0.2200000E+01  0.2719740E+03  0.1188354E+02  0.2590093E-04 -0.1066923E-04  0.9110238E+03  0.4010094E+02
  0.2300000E+01  0.2745488E+03  0.1579168E+02 -0.1495817E-03 -0.2011955E-03  0.9198209E+03  0.5329777E+02
  0.2400000E+01  0.2773315E+03  0.2067447E+02 -0.9020169E-04 -0.1405701E-03  0.9293083E+03  0.6978908E+02
  0.2500000E+01  0.2796666E+03  0.2669019E+02  0.2918243E-04  0.1487136E-04  0.9371478E+03  0.9010898E+02
  0.2600000E+01  0.2811871E+03  0.3399357E+02  0.7335957E-05  0.2086163E-06  0.9422740E+03  0.1147859E+03
  0.2700000E+01  0.2834902E+03  0.4271020E+02  0.2242901E-04 -0.2011657E-04  0.9501332E+03  0.1442448E+03
  0.2800000E+01  0.2863121E+03  0.5300034E+02  0.1137597E-03  0.2369434E-03  0.9597786E+03  0.1790290E+03
  0.2900000E+01  0.2886817E+03  0.6502075E+02 -0.1256219E-03 -0.3579259E-03  0.9678245E+03  0.2196679E+03
  0.3000000E+01  0.2907217E+03  0.7888730E+02 -0.6246567E-04 -0.1641810E-03  0.9747949E+03  0.2665630E+03
  0.3100000E+01  0.2924329E+03  0.9470930E+02  0.1153638E-03  0.3677607E-03  0.9806340E+03  0.3200864E+03
  0.3200000E+01  0.2936909E+03  0.1125551E+03  0.4410744E-04 -0.2652407E-05  0.9849340E+03  0.3804800E+03
