VARIABLES="w (rad/s)"
"abs(F   1   1)" "angle(F   1   1)"
"abs(F   1   2)" "angle(F   1   2)"
"abs(F   1   3)" "angle(F   1   3)"
Zone t="Diffraction force - beta =   0.000 deg",I=    32,F=POINT
  0.1000000E+00  0.9312249E+02 -0.1570796E+01  0.5652410E+03 -0.3134263E+01  0.4382411E+03 -0.1570796E+01
  0.2000000E+00  0.3700222E+03 -0.1570795E+01  0.2304744E+04 -0.3113329E+01  0.1740445E+04 -0.1570794E+01
  0.3000000E+00  0.8214236E+03 -0.1570775E+01  0.5283964E+04 -0.3081008E+01  0.3861656E+04 -0.1570773E+01
  0.4000000E+00  0.1433749E+04 -0.1570676E+01  0.9530111E+04 -0.3039834E+01  0.6744356E+04 -0.1570669E+01
  0.5000000E+00  0.2183430E+04 -0.1570351E+01  0.1501529E+05 -0.2992395E+01  0.1027168E+05 -0.1570325E+01
  0.6000001E+00  0.3042639E+04 -0.1569514E+01  0.2164337E+05 -0.2941076E+01  0.1431016E+05 -0.1569438E+01
  0.7000000E+00  0.3987670E+04 -0.1567710E+01  0.2925334E+05 -0.2887917E+01  0.1875982E+05 -0.1567523E+01
  0.8000001E+00  0.4965972E+04 -0.1564291E+01  0.3765250E+05 -0.2834743E+01  0.2336454E+05 -0.1563886E+01
  0.9000000E+00  0.5934522E+04 -0.1558446E+01  0.4662363E+05 -0.2783088E+01  0.2790522E+05 -0.1557644E+01
  0.1000000E+01  0.6828948E+04 -0.1549292E+01  0.5592243E+05 -0.2733752E+01  0.3209054E+05 -0.1547835E+01
  0.1100000E+01  0.7575927E+04 -0.1536005E+01  0.6533330E+05 -0.2687667E+01  0.3553777E+05 -0.1533499E+01
  0.1200000E+01  0.8065253E+04 -0.1517988E+01  0.7466731E+05 -0.2645469E+01  0.3770970E+05 -0.1513866E+01
  0.1300000E+01  0.8206072E+04 -0.1495413E+01  0.8369784E+05 -0.2606784E+01  0.3816149E+05 -0.1488876E+01
  0.1400000E+01  0.7860233E+04 -0.1469163E+01  0.9228775E+05 -0.2572668E+01  0.3617280E+05 -0.1458870E+01
  0.1500000E+01  0.6905732E+04 -0.1442352E+01  0.1002740E+06 -0.2542914E+01  0.3112794E+05 -0.1425926E+01
  0.1600000E+01  0.5251629E+04 -0.1424584E+01  0.1074943E+06 -0.2517115E+01  0.2255813E+05 -0.1397123E+01
  0.1700000E+01  0.2846641E+04 -0.1463106E+01  0.1138086E+06 -0.2495131E+01  0.1014653E+05 -0.1416078E+01
  0.1800000E+01  0.6584103E+03  0.2797362E+01  0.1190865E+06 -0.2476820E+01  0.6497292E+04  0.2081515E+01
  0.1900000E+01  0.4404682E+04  0.2069239E+01  0.1232171E+06 -0.2461817E+01  0.2668868E+05  0.1988391E+01
  0.2000000E+01  0.9014489E+04  0.2054074E+01  0.1260873E+06 -0.2450282E+01  0.5038333E+05  0.2013831E+01
  0.2100000E+01  0.1416982E+05  0.2075180E+01  0.1276045E+06 -0.2442072E+01  0.7686870E+05  0.2049646E+01
  0.2200000E+01  0.1971057E+05  0.2102856E+01  0.1276788E+06 -0.2437195E+01  0.1053805E+06  0.2085526E+01
  0.2300000E+01  0.2546462E+05  0.2130583E+01  0.1262544E+06 -0.2435653E+01  0.1350409E+06  0.2118953E+01
  0.2400000E+01  0.3125758E+05  0.2155976E+01  0.1232848E+06 -0.2437638E+01  0.1649436E+06  0.2148905E+01
  0.2500000E+01  0.3690598E+05  0.2178138E+01  0.1187703E+06 -0.2443320E+01  0.1941417E+06  0.2174998E+01
  0.2600000E+01  0.4223576E+05  0.2196401E+01  0.1126970E+06 -0.2453293E+01  0.2217044E+06  0.2196871E+01
  0.2700000E+01  0.4706290E+05  0.2210641E+01  0.1051162E+06 -0.2468144E+01  0.2466582E+06  0.2214541E+01
  0.2800000E+01  0.5122302E+05  0.2221047E+01  0.9613797E+05 -0.2489059E+01  0.2680960E+06  0.2228356E+01
  0.2900000E+01  0.5455393E+05  0.2227863E+01  0.8595823E+05 -0.2517879E+01  0.2851586E+06  0.2238643E+01
  0.3000000E+01  0.5690850E+05  0.2230658E+01  0.7470364E+05 -0.2557999E+01  0.2970163E+06  0.2245023E+01
  0.3100000E+01  0.5814809E+05  0.2229336E+01  0.6263665E+05 -0.2615182E+01  0.3029206E+06  0.2247455E+01
  0.3200000E+01  0.5819631E+05  0.2223769E+01  0.4996259E+05 -0.2705573E+01  0.3024181E+06  0.2245921E+01
