 VARIABLES="Time (s)"
"AddedMass    1" "IRF    1"
"AddedMass    2" "IRF    2"
"AddedMass    3" "IRF    3"
Zone t="DoF    1",I=   160,F=POINT
  0.0000000E+00  0.7919185E+04  0.9715097E+04 -0.7441120E-03 -0.1496850E-02  0.3664497E+05  0.5081438E+05
  0.1000000E+00  0.7919185E+04  0.9412623E+04 -0.7441120E-03 -0.1457384E-02  0.3664497E+05  0.4922385E+05
  0.2000000E+00  0.7919185E+04  0.8526537E+04 -0.7441120E-03 -0.1342098E-02  0.3664497E+05  0.4456488E+05
  0.3000000E+00  0.7919185E+04  0.7119204E+04 -0.7441120E-03 -0.1160067E-02  0.3664497E+05  0.3716657E+05
  0.4000000E+00  0.7919185E+04  0.5289250E+04 -0.7441120E-03 -0.9255736E-03  0.3664497E+05  0.2754938E+05
  0.5000000E+00  0.7919185E+04  0.3164055E+04 -0.7441120E-03 -0.6569105E-03  0.3664497E+05  0.1638530E+05
  0.6000000E+00  0.7919185E+04  0.8900898E+03 -0.7441120E-03 -0.3748588E-03  0.3664497E+05  0.4446787E+04
  0.7000000E+00  0.7919185E+04 -0.1378103E+04 -0.7441120E-03 -0.1009632E-03  0.3664497E+05 -0.7451516E+04
  0.8000000E+00  0.7919185E+04 -0.3489426E+04 -0.7441120E-03  0.1442473E-03  0.3664497E+05 -0.1851365E+05
  0.9000000E+00  0.7919185E+04 -0.5307296E+04 -0.7441120E-03  0.3429395E-03  0.3664497E+05 -0.2802086E+05
  0.1000000E+01  0.7919185E+04 -0.6719441E+04 -0.7441120E-03  0.4814203E-03  0.3664497E+05 -0.3538326E+05
  0.1100000E+01  0.7919185E+04 -0.7645632E+04 -0.7441120E-03  0.5512191E-03  0.3664497E+05 -0.4018064E+05
  0.1200000E+01  0.7919185E+04 -0.8042788E+04 -0.7441120E-03  0.5497242E-03  0.3664497E+05 -0.4218932E+05
  0.1300000E+01  0.7919185E+04 -0.7907120E+04 -0.7441120E-03  0.4803225E-03  0.3664497E+05 -0.4139322E+05
  0.1400000E+01  0.7919185E+04 -0.7273176E+04 -0.7441120E-03  0.3520368E-03  0.3664497E+05 -0.3797865E+05
  0.1500000E+01  0.7919185E+04 -0.6209940E+04 -0.7441120E-03  0.1786952E-03  0.3664497E+05 -0.3231344E+05
  0.1600000E+01  0.7919185E+04 -0.4814394E+04 -0.7441120E-03 -0.2228507E-04  0.3664497E+05 -0.2491269E+05
  0.1700000E+01  0.7919185E+04 -0.3203091E+04 -0.7441120E-03 -0.2313980E-03  0.3664497E+05 -0.1639403E+05
  0.1800000E+01  0.7919185E+04 -0.1502494E+04 -0.7441120E-03 -0.4286981E-03  0.3664497E+05 -0.7426360E+04
  0.1900000E+01  0.7919185E+04  0.1611177E+03 -0.7441120E-03 -0.5954558E-03  0.3664497E+05  0.1323558E+04
  0.2000000E+01  0.7919185E+04  0.1671341E+04 -0.7441120E-03 -0.7156829E-03  0.3664497E+05  0.9242380E+04
  0.2100000E+01  0.7919185E+04  0.2930165E+04 -0.7441120E-03 -0.7773993E-03  0.3664497E+05  0.1581514E+05
  0.2200000E+01  0.7919185E+04  0.3864661E+04 -0.7441120E-03 -0.7735392E-03  0.3664497E+05  0.2066047E+05
  0.2300000E+01  0.7919185E+04  0.4431398E+04 -0.7441120E-03 -0.7024333E-03  0.3664497E+05  0.2355371E+05
  0.2400000E+01  0.7919185E+04  0.4618234E+04 -0.7441120E-03 -0.5678280E-03  0.3664497E+05  0.2443610E+05
  0.2500000E+01  0.7919185E+04  0.4443518E+04 -0.7441120E-03 -0.3784633E-03  0.3664497E+05  0.2341025E+05
  0.2600000E+01  0.7919185E+04  0.3952832E+04 -0.7441120E-03 -0.1472455E-03  0.3664497E+05  0.2072253E+05
  0.2700000E+01  0.7919185E+04  0.3213653E+04 -0.7441120E-03  0.1098898E-03  0.3664497E+05  0.1673452E+05
  0.2800000E+01  0.7919185E+04  0.2308480E+04 -0.7441120E-03  0.3753359E-03  0.3664497E+05  0.1188636E+05
  0.2900000E+01  0.7919185E+04  0.1327058E+04 -0.7441120E-03  0.6312547E-03  0.3664497E+05  0.6655392E+04
  0.3000000E+01  0.7919185E+04  0.3584401E+03 -0.7441120E-03  0.8609822E-03  0.3664497E+05  0.1513978E+04
  0.3100000E+01  0.7919185E+04 -0.5165012E+03 -0.7441120E-03  0.1050285E-02  0.3664497E+05 -0.3110168E+04
  0.3200000E+01  0.7919185E+04 -0.1231408E+04 -0.7441120E-03  0.1188359E-02  0.3664497E+05 -0.6867455E+04
  0.3300000E+01  0.7919185E+04 -0.1739199E+04 -0.7441120E-03  0.1268502E-02  0.3664497E+05 -0.9511490E+04
  0.3400000E+01  0.7919185E+04 -0.2014862E+04 -0.7441120E-03  0.1288413E-02  0.3664497E+05 -0.1091363E+05
  0.3500000E+01  0.7919185E+04 -0.2056167E+04 -0.7441120E-03  0.1250123E-02  0.3664497E+05 -0.1106650E+05
  0.3600000E+01  0.7919185E+04 -0.1882327E+04 -0.7441120E-03  0.1159558E-02  0.3664497E+05 -0.1007655E+05
  0.3700000E+01  0.7919185E+04 -0.1530829E+04 -0.7441120E-03  0.1025823E-02  0.3664497E+05 -0.8146970E+04
  0.3800000E+01  0.7919185E+04 -0.1052801E+04 -0.7441120E-03  0.8602583E-03  0.3664497E+05 -0.5552806E+04
  0.3900000E+01  0.7919185E+04 -0.5074135E+03 -0.7441120E-03  0.6753835E-03  0.3664497E+05 -0.2611042E+04
  0.4000000E+01  0.7919185E+04  0.4412765E+02 -0.7441120E-03  0.4838197E-03  0.3664497E+05  0.3514349E+03
  0.4100000E+01  0.7919185E+04  0.5444545E+03 -0.7441120E-03  0.2972936E-03  0.3664497E+05  0.3029106E+04
  0.4200000E+01  0.7919185E+04  0.9452103E+03 -0.7441120E-03  0.1258083E-03  0.3664497E+05  0.5165281E+04
  0.4300000E+01  0.7919185E+04  0.1211104E+04 -0.7441120E-03 -0.2295398E-04  0.3664497E+05  0.6573548E+04
  0.4400000E+01  0.7919185E+04  0.1322533E+04 -0.7441120E-03 -0.1439668E-03  0.3664497E+05  0.7151568E+04
  0.4500000E+01  0.7919185E+04  0.1276575E+04 -0.7441120E-03 -0.2349049E-03  0.3664497E+05  0.6886172E+04
  0.4600000E+01  0.7919185E+04  0.1086345E+04 -0.7441120E-03 -0.2959322E-03  0.3664497E+05  0.5849670E+04
  0.4700000E+01  0.7919185E+04  0.7788557E+03 -0.7441120E-03 -0.3292691E-03  0.3664497E+05  0.4188337E+04
  0.4800000E+01  0.7919185E+04  0.3916631E+03 -0.7441120E-03 -0.3386032E-03  0.3664497E+05  0.2104300E+04
  0.4900000E+01  0.7919185E+04 -0.3136032E+02 -0.7441120E-03 -0.3284214E-03  0.3664497E+05 -0.1670884E+03
  0.5000000E+01  0.7919185E+04 -0.4446621E+03 -0.7441120E-03 -0.3033374E-03  0.3664497E+05 -0.2382037E+04
  0.5100000E+01  0.7919185E+04 -0.8055910E+03 -0.7441120E-03 -0.2674978E-03  0.3664497E+05 -0.4312763E+04
  0.5200000E+01  0.7919185E+04 -0.1078500E+04 -0.7441120E-03 -0.2241280E-03  0.3664497E+05 -0.5769356E+04
  0.5300000E+01  0.7919185E+04 -0.1237988E+04 -0.7441120E-03 -0.1752630E-03  0.3664497E+05 -0.6616986E+04
  0.5400000E+01  0.7919185E+04 -0.1271023E+04 -0.7441120E-03 -0.1216862E-03  0.3664497E+05 -0.6787107E+04
  0.5500000E+01  0.7919185E+04 -0.1177733E+04 -0.7441120E-03 -0.6308047E-04  0.3664497E+05 -0.6281601E+04
  0.5600000E+01  0.7919185E+04 -0.9709210E+03 -0.7441120E-03  0.1646442E-05  0.3664497E+05 -0.5169981E+04
  0.5700000E+01  0.7919185E+04 -0.6743130E+03 -0.7441120E-03  0.7389487E-04  0.3664497E+05 -0.3580005E+04
  0.5800000E+01  0.7919185E+04 -0.3198353E+03 -0.7441120E-03  0.1548361E-03  0.3664497E+05 -0.1682984E+04
  0.5900000E+01  0.7919185E+04  0.5583848E+02 -0.7441120E-03  0.2448758E-03  0.3664497E+05  0.3247050E+03
  0.6000000E+01  0.7919185E+04  0.4150869E+03 -0.7441120E-03  0.3431813E-03  0.3664497E+05  0.2241937E+04
  0.6100000E+01  0.7919185E+04  0.7230807E+03 -0.7441120E-03  0.4473522E-03  0.3664497E+05  0.3882815E+04
  0.6200000E+01  0.7919185E+04  0.9511419E+03 -0.7441120E-03  0.5532673E-03  0.3664497E+05  0.5094580E+04
  0.6300000E+01  0.7919185E+04  0.1079367E+04 -0.7441120E-03  0.6551567E-03  0.3664497E+05  0.5771556E+04
  0.6400000E+01  0.7919185E+04  0.1098325E+04 -0.7441120E-03  0.7458921E-03  0.3664497E+05  0.5864158E+04
  0.6500000E+01  0.7919185E+04  0.1009644E+04 -0.7441120E-03  0.8174872E-03  0.3664497E+05  0.5381920E+04
  0.6600000E+01  0.7919185E+04  0.8255074E+03 -0.7441120E-03  0.8617612E-03  0.3664497E+05  0.4390728E+04
  0.6700000E+01  0.7919185E+04  0.5671219E+03 -0.7441120E-03  0.8711069E-03  0.3664497E+05  0.3004550E+04
  0.6800000E+01  0.7919185E+04  0.2623531E+03 -0.7441120E-03  0.8392902E-03  0.3664497E+05  0.1372756E+04
  0.6900000E+01  0.7919185E+04 -0.5723718E+02 -0.7441120E-03  0.7622021E-03  0.3664497E+05 -0.3357684E+03
  0.7000000E+01  0.7919185E+04 -0.3596198E+03 -0.7441120E-03  0.6384745E-03  0.3664497E+05 -0.1949880E+04
  0.7100000E+01  0.7919185E+04 -0.6154574E+03 -0.7441120E-03  0.4698983E-03  0.3664497E+05 -0.3313044E+04
  0.7200000E+01  0.7919185E+04 -0.8009402E+03 -0.7441120E-03  0.2615903E-03  0.3664497E+05 -0.4298465E+04
  0.7300000E+01  0.7919185E+04 -0.8999479E+03 -0.7441120E-03  0.2187701E-04  0.3664497E+05 -0.4820594E+04
  0.7400000E+01  0.7919185E+04 -0.9054281E+03 -0.7441120E-03 -0.2381140E-03  0.3664497E+05 -0.4842417E+04
  0.7500000E+01  0.7919185E+04 -0.8198212E+03 -0.7441120E-03 -0.5051231E-03  0.3664497E+05 -0.4377667E+04
  0.7600000E+01  0.7919185E+04 -0.6545287E+03 -0.7441120E-03 -0.7646421E-03  0.3664497E+05 -0.3487922E+04
  0.7700000E+01  0.7919185E+04 -0.4285255E+03 -0.7441120E-03 -0.1001953E-02  0.3664497E+05 -0.2275116E+04
  0.7800000E+01  0.7919185E+04 -0.1662621E+03 -0.7441120E-03 -0.1203204E-02  0.3664497E+05 -0.8702974E+03
  0.7900000E+01  0.7919185E+04  0.1049315E+03 -0.7441120E-03 -0.1356491E-02  0.3664497E+05  0.5802830E+03
  0.8000000E+01  0.7919185E+04  0.3576210E+03 -0.7441120E-03 -0.1452761E-02  0.3664497E+05  0.1930008E+04
  0.8100000E+01  0.7919185E+04  0.5670238E+03 -0.7441120E-03 -0.1486564E-02  0.3664497E+05  0.3046620E+04
  0.8200000E+01  0.7919185E+04  0.7133668E+03 -0.7441120E-03 -0.1456476E-02  0.3664497E+05  0.3824792E+04
  0.8300000E+01  0.7919185E+04  0.7837377E+03 -0.7441120E-03 -0.1365245E-02  0.3664497E+05  0.4195977E+04
  0.8400001E+01  0.7919185E+04  0.7731659E+03 -0.7441120E-03 -0.1219591E-02  0.3664497E+05  0.4134143E+04
  0.8500000E+01  0.7919185E+04  0.6849104E+03 -0.7441120E-03 -0.1029686E-02  0.3664497E+05  0.3657252E+04
  0.8600000E+01  0.7919185E+04  0.5299016E+03 -0.7441120E-03 -0.8083631E-03  0.3664497E+05  0.2824233E+04
  0.8700000E+01  0.7919185E+04  0.3254609E+03 -0.7441120E-03 -0.5701319E-03  0.3664497E+05  0.1728075E+04
  0.8800000E+01  0.7919185E+04  0.9338777E+02 -0.7441120E-03 -0.3300469E-03  0.3664497E+05  0.4855867E+03
  0.8900001E+01  0.7919185E+04 -0.1423072E+03 -0.7441120E-03 -0.1025790E-03  0.3664497E+05 -0.7747617E+03
  0.9000000E+01  0.7919185E+04 -0.3578867E+03 -0.7441120E-03  0.9946395E-04  0.3664497E+05 -0.1926106E+04
  0.9100000E+01  0.7919185E+04 -0.5322254E+03 -0.7441120E-03  0.2658476E-03  0.3664497E+05 -0.2855692E+04
  0.9200000E+01  0.7919185E+04 -0.6488527E+03 -0.7441120E-03  0.3895734E-03  0.3664497E+05 -0.3475769E+04
  0.9300000E+01  0.7919185E+04 -0.6974991E+03 -0.7441120E-03  0.4672708E-03  0.3664497E+05 -0.3731820E+04
  0.9400001E+01  0.7919185E+04 -0.6749426E+03 -0.7441120E-03  0.4992549E-03  0.3664497E+05 -0.3607050E+04
  0.9500000E+01  0.7919185E+04 -0.5851771E+03 -0.7441120E-03  0.4892828E-03  0.3664497E+05 -0.3123240E+04
  0.9600000E+01  0.7919185E+04 -0.4388229E+03 -0.7441120E-03  0.4440159E-03  0.3664497E+05 -0.2337546E+04
  0.9700000E+01  0.7919185E+04 -0.2519102E+03 -0.7441120E-03  0.3722625E-03  0.3664497E+05 -0.1335977E+04
  0.9800000E+01  0.7919185E+04 -0.4414140E+02 -0.7441120E-03  0.2840635E-03  0.3664497E+05 -0.2240597E+03
  0.9900001E+01  0.7919185E+04  0.1631576E+03 -0.7441120E-03  0.1897140E-03  0.3664497E+05  0.8841172E+03
  0.1000000E+02  0.7919185E+04  0.3492129E+03 -0.7441120E-03  0.9881538E-04  0.3664497E+05  0.1877544E+04
  0.1010000E+02  0.7919185E+04  0.4958762E+03 -0.7441120E-03  0.1943165E-04  0.3664497E+05  0.2659359E+04
  0.1020000E+02  0.7919185E+04  0.5893588E+03 -0.7441120E-03 -0.4254698E-04  0.3664497E+05  0.3156106E+04
  0.1030000E+02  0.7919185E+04  0.6215266E+03 -0.7441120E-03 -0.8381595E-04  0.3664497E+05  0.3324623E+04
  0.1040000E+02  0.7919185E+04  0.5905672E+03 -0.7441120E-03 -0.1037755E-03  0.3664497E+05  0.3155577E+04
  0.1050000E+02  0.7919185E+04  0.5010468E+03 -0.7441120E-03 -0.1043878E-03  0.3664497E+05  0.2673731E+04
  0.1060000E+02  0.7919185E+04  0.3632783E+03 -0.7441120E-03 -0.8976070E-04  0.3664497E+05  0.1934535E+04
  0.1070000E+02  0.7919185E+04  0.1921852E+03 -0.7441120E-03 -0.6554077E-04  0.3664497E+05  0.1018011E+04
  0.1080000E+02  0.7919185E+04  0.5681435E+01 -0.7441120E-03 -0.3815519E-04  0.3664497E+05  0.2008585E+02
  0.1090000E+02  0.7919185E+04 -0.1771683E+03 -0.7441120E-03 -0.1399527E-04  0.3664497E+05 -0.9572646E+03
  0.1100000E+02  0.7919185E+04 -0.3380982E+03 -0.7441120E-03  0.1369984E-05  0.3664497E+05 -0.1816443E+04
  0.1110000E+02  0.7919185E+04 -0.4614524E+03 -0.7441120E-03  0.3886449E-05  0.3664497E+05 -0.2473900E+04
  0.1120000E+02  0.7919185E+04 -0.5356816E+03 -0.7441120E-03 -0.8480132E-05  0.3664497E+05 -0.2868116E+04
  0.1130000E+02  0.7919185E+04 -0.5544288E+03 -0.7441120E-03 -0.3546166E-04  0.3664497E+05 -0.2965386E+04
  0.1140000E+02  0.7919185E+04 -0.5170291E+03 -0.7441120E-03 -0.7445914E-04  0.3664497E+05 -0.2762455E+04
  0.1150000E+02  0.7919185E+04 -0.4284774E+03 -0.7441120E-03 -0.1207755E-03  0.3664497E+05 -0.2286325E+04
  0.1160000E+02  0.7919185E+04 -0.2987728E+03 -0.7441120E-03 -0.1680922E-03  0.3664497E+05 -0.1590713E+04
  0.1170000E+02  0.7919185E+04 -0.1418430E+03 -0.7441120E-03 -0.2091183E-03  0.3664497E+05 -0.7502762E+03
  0.1180000E+02  0.7919185E+04  0.2596938E+02 -0.7441120E-03 -0.2363834E-03  0.3664497E+05  0.1474914E+03
  0.1190000E+02  0.7919185E+04  0.1875717E+03 -0.7441120E-03 -0.2430631E-03  0.3664497E+05  0.1011178E+04
  0.1200000E+02  0.7919185E+04  0.3268609E+03 -0.7441120E-03 -0.2237739E-03  0.3664497E+05  0.1754747E+04
  0.1210000E+02  0.7919185E+04  0.4303295E+03 -0.7441120E-03 -0.1752496E-03  0.3664497E+05  0.2306123E+04
  0.1220000E+02  0.7919185E+04  0.4883355E+03 -0.7441120E-03 -0.9682508E-04  0.3664497E+05  0.2613956E+04
  0.1230000E+02  0.7919185E+04  0.4960196E+03 -0.7441120E-03  0.9314193E-05  0.3664497E+05  0.2652509E+04
  0.1240000E+02  0.7919185E+04  0.4536668E+03 -0.7441120E-03  0.1381462E-03  0.3664497E+05  0.2423567E+04
  0.1250000E+02  0.7919185E+04  0.3665947E+03 -0.7441120E-03  0.2821134E-03  0.3664497E+05  0.1955807E+04
  0.1260000E+02  0.7919185E+04  0.2444739E+03 -0.7441120E-03  0.4316705E-03  0.3664497E+05  0.1301153E+04
  0.1270000E+02  0.7919185E+04  0.1003206E+03 -0.7441120E-03  0.5760232E-03  0.3664497E+05  0.5293483E+03
  0.1280000E+02  0.7919185E+04 -0.5093296E+02 -0.7441120E-03  0.7040349E-03  0.3664497E+05 -0.2796781E+03
  0.1290000E+02  0.7919185E+04 -0.1939321E+03 -0.7441120E-03  0.8051630E-03  0.3664497E+05 -0.1043820E+04
  0.1300000E+02  0.7919185E+04 -0.3144828E+03 -0.7441120E-03  0.8703949E-03  0.3664497E+05 -0.1687250E+04
  0.1310000E+02  0.7919185E+04 -0.4009284E+03 -0.7441120E-03  0.8930676E-03  0.3664497E+05 -0.2147779E+04
  0.1320000E+02  0.7919185E+04 -0.4452851E+03 -0.7441120E-03  0.8695017E-03  0.3664497E+05 -0.2382899E+04
  0.1330000E+02  0.7919185E+04 -0.4439616E+03 -0.7441120E-03  0.7993898E-03  0.3664497E+05 -0.2373628E+04
  0.1340000E+02  0.7919185E+04 -0.3980241E+03 -0.7441120E-03  0.6859234E-03  0.3664497E+05 -0.2125887E+04
  0.1350000E+02  0.7919185E+04 -0.3130029E+03 -0.7441120E-03  0.5356139E-03  0.3664497E+05 -0.1669461E+04
  0.1360000E+02  0.7919185E+04 -0.1982440E+03 -0.7441120E-03  0.3578361E-03  0.3664497E+05 -0.1054497E+04
  0.1370000E+02  0.7919185E+04 -0.6588828E+02 -0.7441120E-03  0.1641498E-03  0.3664497E+05 -0.3460338E+03
  0.1380000E+02  0.7919185E+04  0.7040201E+02 -0.7441120E-03 -0.3258852E-04  0.3664497E+05  0.3828124E+03
  0.1390000E+02  0.7919185E+04  0.1968359E+03 -0.7441120E-03 -0.2191874E-03  0.3664497E+05  0.1058312E+04
  0.1400000E+02  0.7919185E+04  0.3009097E+03 -0.7441120E-03 -0.3831288E-03  0.3664497E+05  0.1613676E+04
  0.1410000E+02  0.7919185E+04  0.3726133E+03 -0.7441120E-03 -0.5135220E-03  0.3664497E+05  0.1995509E+04
  0.1420000E+02  0.7919185E+04  0.4053812E+03 -0.7441120E-03 -0.6018963E-03  0.3664497E+05  0.2168874E+04
  0.1430000E+02  0.7919185E+04  0.3967084E+03 -0.7441120E-03 -0.6428187E-03  0.3664497E+05  0.2120569E+04
  0.1440000E+02  0.7919185E+04  0.3482991E+03 -0.7441120E-03 -0.6342531E-03  0.3664497E+05  0.1859906E+04
  0.1450000E+02  0.7919185E+04  0.2658235E+03 -0.7441120E-03 -0.5776591E-03  0.3664497E+05  0.1417381E+04
  0.1460000E+02  0.7919185E+04  0.1582528E+03 -0.7441120E-03 -0.4778056E-03  0.3664497E+05  0.8411140E+03
  0.1470000E+02  0.7919185E+04  0.3692111E+02 -0.7441120E-03 -0.3423649E-03  0.3664497E+05  0.1918077E+03
  0.1480000E+02  0.7919185E+04 -0.8570757E+02 -0.7441120E-03 -0.1812698E-03  0.3664497E+05 -0.4638507E+03
  0.1490000E+02  0.7919185E+04 -0.1972512E+03 -0.7441120E-03 -0.5958221E-05  0.3664497E+05 -0.1059673E+04
  0.1500000E+02  0.7919185E+04 -0.2867256E+03 -0.7441120E-03  0.1714884E-03  0.3664497E+05 -0.1536997E+04
  0.1510000E+02  0.7919185E+04 -0.3455629E+03 -0.7441120E-03  0.3391966E-03  0.3664497E+05 -0.1850135E+04
  0.1520000E+02  0.7919185E+04 -0.3684540E+03 -0.7441120E-03  0.4862901E-03  0.3664497E+05 -0.1970857E+04
  0.1530000E+02  0.7919185E+04 -0.3538150E+03 -0.7441120E-03  0.6035703E-03  0.3664497E+05 -0.1890865E+04
  0.1540000E+02  0.7919185E+04 -0.3038632E+03 -0.7441120E-03  0.6840162E-03  0.3664497E+05 -0.1622192E+04
  0.1550000E+02  0.7919185E+04 -0.2243313E+03 -0.7441120E-03  0.7231039E-03  0.3664497E+05 -0.1195649E+04
  0.1560000E+02  0.7919185E+04 -0.1237971E+03 -0.7441120E-03  0.7189165E-03  0.3664497E+05 -0.6572269E+03
  0.1570000E+02  0.7919185E+04 -0.1281053E+02 -0.7441120E-03  0.6720717E-03  0.3664497E+05 -0.6341392E+02
  0.1580000E+02  0.7919185E+04  0.9726628E+02 -0.7441120E-03  0.5854606E-03  0.3664497E+05  0.5250060E+03
  0.1590000E+02  0.7919185E+04  0.1953753E+03 -0.7441120E-03  0.4638897E-03  0.3664497E+05  0.1048934E+04
Zone t="DoF    2",I=   160,F=POINT
  0.0000000E+00  0.1201870E-03  0.7885170E-03  0.3139148E+05  0.6358877E+05  0.1311696E-02  0.1884502E-02
  0.1000000E+00  0.1201870E-03  0.7715406E-03  0.3139148E+05  0.6208409E+05  0.1311696E-02  0.1861162E-02
  0.2000000E+00  0.1201870E-03  0.7215363E-03  0.3139148E+05  0.5766478E+05  0.1311696E-02  0.1791002E-02
  0.3000000E+00  0.1201870E-03  0.6412269E-03  0.3139148E+05  0.5060812E+05  0.1311696E-02  0.1673734E-02
  0.4000000E+00  0.1201870E-03  0.5349807E-03  0.3139148E+05  0.4135391E+05  0.1311696E-02  0.1509309E-02
  0.5000000E+00  0.1201870E-03  0.4085662E-03  0.3139148E+05  0.3047271E+05  0.1311696E-02  0.1298490E-02
  0.6000000E+00  0.1201870E-03  0.2688245E-03  0.3139148E+05  0.1862509E+05  0.1311696E-02  0.1043522E-02
  0.7000000E+00  0.1201870E-03  0.1232773E-03  0.3139148E+05  0.6514784E+04  0.1311696E-02  0.7487899E-03
  0.8000000E+00  0.1201870E-03 -0.2031008E-04  0.3139148E+05 -0.5160450E+04  0.1311696E-02  0.4213388E-03
  0.9000000E+00  0.1201870E-03 -0.1543865E-03  0.3139148E+05 -0.1575652E+05  0.1311696E-02  0.7115521E-04
  0.1000000E+01  0.1201870E-03 -0.2720679E-03  0.3139148E+05 -0.2472572E+05  0.1311696E-02 -0.2888774E-03
  0.1100000E+01  0.1201870E-03 -0.3675573E-03  0.3139148E+05 -0.3165122E+05  0.1311696E-02 -0.6433956E-03
  0.1200000E+01  0.1201870E-03 -0.4365063E-03  0.3139148E+05 -0.3627097E+05  0.1311696E-02 -0.9753488E-03
  0.1300000E+01  0.1201870E-03 -0.4762918E-03  0.3139148E+05 -0.3848942E+05  0.1311696E-02 -0.1267119E-02
  0.1400000E+01  0.1201870E-03 -0.4861871E-03  0.3139148E+05 -0.3837649E+05  0.1311696E-02 -0.1501886E-02
  0.1500000E+01  0.1201870E-03 -0.4674132E-03  0.3139148E+05 -0.3615424E+05  0.1311696E-02 -0.1665103E-02
  0.1600000E+01  0.1201870E-03 -0.4230589E-03  0.3139148E+05 -0.3217270E+05  0.1311696E-02 -0.1745930E-02
  0.1700000E+01  0.1201870E-03 -0.3578737E-03  0.3139148E+05 -0.2687715E+05  0.1311696E-02 -0.1738478E-02
  0.1800000E+01  0.1201870E-03 -0.2779388E-03  0.3139148E+05 -0.2076961E+05  0.1311696E-02 -0.1642706E-02
  0.1900000E+01  0.1201870E-03 -0.1902371E-03  0.3139148E+05 -0.1436796E+05  0.1311696E-02 -0.1464834E-02
  0.2000000E+01  0.1201870E-03 -0.1021492E-03  0.3139148E+05 -0.8165811E+04  0.1311696E-02 -0.1217226E-02
  0.2100000E+01  0.1201870E-03 -0.2090913E-04  0.3139148E+05 -0.2596584E+04  0.1311696E-02 -0.9176914E-03
  0.2200000E+01  0.1201870E-03  0.4694142E-04  0.3139148E+05  0.1995769E+04  0.1311696E-02 -0.5882288E-03
  0.2300000E+01  0.1201870E-03  0.9605803E-04  0.3139148E+05  0.5377296E+04  0.1311696E-02 -0.2533314E-03
  0.2400000E+01  0.1201870E-03  0.1227162E-03  0.3139148E+05  0.7434356E+04  0.1311696E-02  0.6202636E-04
  0.2500000E+01  0.1201870E-03  0.1251188E-03  0.3139148E+05  0.8173654E+04  0.1311696E-02  0.3345271E-03
  0.2600000E+01  0.1201870E-03  0.1035556E-03  0.3139148E+05  0.7712338E+04  0.1311696E-02  0.5445831E-03
  0.2700000E+01  0.1201870E-03  0.6040039E-04  0.3139148E+05  0.6259533E+04  0.1311696E-02  0.6781174E-03
  0.2800000E+01  0.1201870E-03 -0.5938248E-07  0.3139148E+05  0.4091306E+04  0.1311696E-02  0.7278993E-03
  0.2900000E+01  0.1201870E-03 -0.7195737E-04  0.3139148E+05  0.1521565E+04  0.1311696E-02  0.6942517E-03
  0.3000000E+01  0.1201870E-03 -0.1483157E-03  0.3139148E+05 -0.1128451E+04  0.1311696E-02  0.5850799E-03
  0.3100000E+01  0.1201870E-03 -0.2216215E-03  0.3139148E+05 -0.3559377E+04  0.1311696E-02  0.4151629E-03
  0.3200000E+01  0.1201870E-03 -0.2844558E-03  0.3139148E+05 -0.5519081E+04  0.1311696E-02  0.2047929E-03
  0.3300000E+01  0.1201870E-03 -0.3301351E-03  0.3139148E+05 -0.6822324E+04  0.1311696E-02 -0.2215443E-04
  0.3400000E+01  0.1201870E-03 -0.3533010E-03  0.3139148E+05 -0.7363068E+04  0.1311696E-02 -0.2405127E-03
  0.3500000E+01  0.1201870E-03 -0.3504138E-03  0.3139148E+05 -0.7118958E+04  0.1311696E-02 -0.4262815E-03
  0.3600000E+01  0.1201870E-03 -0.3201001E-03  0.3139148E+05 -0.6147823E+04  0.1311696E-02 -0.5589972E-03
  0.3700000E+01  0.1201870E-03 -0.2633237E-03  0.3139148E+05 -0.4577054E+04  0.1311696E-02 -0.6237836E-03
  0.3800000E+01  0.1201870E-03 -0.1833589E-03  0.3139148E+05 -0.2587119E+04  0.1311696E-02 -0.6128771E-03
  0.3900000E+01  0.1201870E-03 -0.8556117E-04  0.3139148E+05 -0.3910490E+03  0.1311696E-02 -0.5264491E-03
  0.4000000E+01  0.1201870E-03  0.2304116E-04  0.3139148E+05  0.1787939E+04  0.1311696E-02 -0.3726641E-03
  0.4100000E+01  0.1201870E-03  0.1343167E-03  0.3139148E+05  0.3738692E+04  0.1311696E-02 -0.1669081E-03
  0.4200000E+01  0.1201870E-03  0.2397031E-03  0.3139148E+05  0.5281977E+04  0.1311696E-02  0.6970721E-04
  0.4300000E+01  0.1201870E-03  0.3309289E-03  0.3139148E+05  0.6286286E+04  0.1311696E-02  0.3124398E-03
  0.4400000E+01  0.1201870E-03  0.4007285E-03  0.3139148E+05  0.6678404E+04  0.1311696E-02  0.5354226E-03
  0.4500000E+01  0.1201870E-03  0.4434776E-03  0.3139148E+05  0.6447822E+04  0.1311696E-02  0.7143185E-03
  0.4600000E+01  0.1201870E-03  0.4556957E-03  0.3139148E+05  0.5644894E+04  0.1311696E-02  0.8288524E-03
  0.4700000E+01  0.1201870E-03  0.4363710E-03  0.3139148E+05  0.4373315E+04  0.1311696E-02  0.8649813E-03
  0.4800000E+01  0.1201870E-03  0.3870726E-03  0.3139148E+05  0.2777734E+04  0.1311696E-02  0.8164654E-03
  0.4900000E+01  0.1201870E-03  0.3118370E-03  0.3139148E+05  0.1027990E+04  0.1311696E-02  0.6856629E-03
  0.5000000E+01  0.1201870E-03  0.2168385E-03  0.3139148E+05 -0.6984973E+03  0.1311696E-02  0.4834745E-03
  0.5100000E+01  0.1201870E-03  0.1098658E-03  0.3139148E+05 -0.2234223E+04  0.1311696E-02  0.2284101E-03
  0.5200000E+01  0.1201870E-03 -0.3451873E-06  0.3139148E+05 -0.3437500E+04  0.1311696E-02 -0.5513299E-04
  0.5300000E+01  0.1201870E-03 -0.1048654E-03  0.3139148E+05 -0.4205167E+04  0.1311696E-02 -0.3392066E-03
  0.5400000E+01  0.1201870E-03 -0.1953521E-03  0.3139148E+05 -0.4481167E+04  0.1311696E-02 -0.5950707E-03
  0.5500000E+01  0.1201870E-03 -0.2647734E-03  0.3139148E+05 -0.4260044E+04  0.1311696E-02 -0.7960671E-03
  0.5600000E+01  0.1201870E-03 -0.3080186E-03  0.3139148E+05 -0.3585550E+04  0.1311696E-02 -0.9203305E-03
  0.5700000E+01  0.1201870E-03 -0.3223348E-03  0.3139148E+05 -0.2544415E+04  0.1311696E-02 -0.9530672E-03
  0.5800000E+01  0.1201870E-03 -0.3075501E-03  0.3139148E+05 -0.1256220E+04  0.1311696E-02 -0.8881534E-03
  0.5900000E+01  0.1201870E-03 -0.2660632E-03  0.3139148E+05  0.1395613E+03  0.1311696E-02 -0.7288933E-03
  0.6000000E+01  0.1201870E-03 -0.2025938E-03  0.3139148E+05  0.1498087E+04  0.1311696E-02 -0.4878294E-03
  0.6100000E+01  0.1201870E-03 -0.1237230E-03  0.3139148E+05  0.2683511E+04  0.1311696E-02 -0.1856281E-03
  0.6200000E+01  0.1201870E-03 -0.3726212E-04  0.3139148E+05  0.3582102E+04  0.1311696E-02  0.1508665E-03
  0.6300000E+01  0.1201870E-03  0.4848830E-04  0.3139148E+05  0.4112622E+04  0.1311696E-02  0.4912191E-03
  0.6400000E+01  0.1201870E-03  0.1255268E-03  0.3139148E+05  0.4233270E+04  0.1311696E-02  0.8043971E-03
  0.6500000E+01  0.1201870E-03  0.1869012E-03  0.3139148E+05  0.3944435E+04  0.1311696E-02  0.1061841E-02
  0.6600000E+01  0.1201870E-03  0.2273581E-03  0.3139148E+05  0.3287205E+04  0.1311696E-02  0.1240325E-02
  0.6700000E+01  0.1201870E-03  0.2438246E-03  0.3139148E+05  0.2337996E+04  0.1311696E-02  0.1324298E-02
  0.6800000E+01  0.1201870E-03  0.2356786E-03  0.3139148E+05  0.1199840E+04  0.1311696E-02  0.1307478E-02
  0.6900000E+01  0.1201870E-03  0.2047781E-03  0.3139148E+05 -0.8716531E+01  0.1311696E-02  0.1193512E-02
  0.7000000E+01  0.1201870E-03  0.1552461E-03  0.3139148E+05 -0.1165842E+04  0.1311696E-02  0.9956154E-03
  0.7100000E+01  0.1201870E-03  0.9303548E-04  0.3139148E+05 -0.2158534E+04  0.1311696E-02  0.7352436E-03
  0.7200000E+01  0.1201870E-03  0.2530722E-04  0.3139148E+05 -0.2893639E+04  0.1311696E-02  0.4398826E-03
  0.7300000E+01  0.1201870E-03 -0.4030572E-04  0.3139148E+05 -0.3306379E+04  0.1311696E-02  0.1402180E-03
  0.7400000E+01  0.1201870E-03 -0.9649240E-04  0.3139148E+05 -0.3365998E+04  0.1311696E-02 -0.1330959E-03
  0.7500000E+01  0.1201870E-03 -0.1370237E-03  0.3139148E+05 -0.3077767E+04  0.1311696E-02 -0.3526733E-03
  0.7600000E+01  0.1201870E-03 -0.1574061E-03  0.3139148E+05 -0.2481378E+04  0.1311696E-02 -0.4973381E-03
  0.7700000E+01  0.1201870E-03 -0.1553699E-03  0.3139148E+05 -0.1646003E+04  0.1311696E-02 -0.5544719E-03
  0.7800000E+01  0.1201870E-03 -0.1311278E-03  0.3139148E+05 -0.6625916E+03  0.1311696E-02 -0.5214612E-03
  0.7900000E+01  0.1201870E-03 -0.8739101E-04  0.3139148E+05  0.3658416E+03  0.1311696E-02 -0.4061583E-03
  0.8000000E+01  0.1201870E-03 -0.2911830E-04  0.3139148E+05  0.1334722E+04  0.1311696E-02 -0.2261769E-03
  0.8100000E+01  0.1201870E-03  0.3696113E-04  0.3139148E+05  0.2148465E+04  0.1311696E-02 -0.7185483E-05
  0.8200000E+01  0.1201870E-03  0.1030214E-03  0.3139148E+05  0.2729602E+04  0.1311696E-02  0.2197354E-03
  0.8300000E+01  0.1201870E-03  0.1609427E-03  0.3139148E+05  0.3026096E+04  0.1311696E-02  0.4213797E-03
  0.8400001E+01  0.1201870E-03  0.2031596E-03  0.3139148E+05  0.3015736E+04  0.1311696E-02  0.5660229E-03
  0.8500000E+01  0.1201870E-03  0.2234798E-03  0.3139148E+05  0.2707607E+04  0.1311696E-02  0.6269926E-03
  0.8600000E+01  0.1201870E-03  0.2177872E-03  0.3139148E+05  0.2140273E+04  0.1311696E-02  0.5858518E-03
  0.8700000E+01  0.1201870E-03  0.1845502E-03  0.3139148E+05  0.1377197E+04  0.1311696E-02  0.4347846E-03
  0.8800000E+01  0.1201870E-03  0.1250893E-03  0.3139148E+05  0.4996991E+03  0.1311696E-02  0.1780037E-03
  0.8900001E+01  0.1201870E-03  0.4356918E-04  0.3139148E+05 -0.4015069E+03  0.1311696E-02 -0.1680541E-03
  0.9000000E+01  0.1201870E-03 -0.5330039E-04  0.3139148E+05 -0.1235787E+04  0.1311696E-02 -0.5757969E-03
  0.9100000E+01  0.1201870E-03 -0.1568242E-03  0.3139148E+05 -0.1921464E+04  0.1311696E-02 -0.1008747E-02
  0.9200000E+01  0.1201870E-03 -0.2570914E-03  0.3139148E+05 -0.2393786E+04  0.1311696E-02 -0.1424781E-02
  0.9300000E+01  0.1201870E-03 -0.3439045E-03  0.3139148E+05 -0.2611018E+04  0.1311696E-02 -0.1780138E-02
  0.9400001E+01  0.1201870E-03 -0.4077582E-03  0.3139148E+05 -0.2557931E+04  0.1311696E-02 -0.2033720E-02
  0.9500000E+01  0.1201870E-03 -0.4407935E-03  0.3139148E+05 -0.2246749E+04  0.1311696E-02 -0.2151346E-02
  0.9600000E+01  0.1201870E-03 -0.4376284E-03  0.3139148E+05 -0.1715184E+04  0.1311696E-02 -0.2109512E-02
  0.9700000E+01  0.1201870E-03 -0.3959789E-03  0.3139148E+05 -0.1022075E+04  0.1311696E-02 -0.1898254E-02
  0.9800000E+01  0.1201870E-03 -0.3170095E-03  0.3139148E+05 -0.2409752E+03  0.1311696E-02 -0.1522824E-02
  0.9900001E+01  0.1201870E-03 -0.2053749E-03  0.3139148E+05  0.5475429E+03  0.1311696E-02 -0.1003983E-02
  0.1000000E+02  0.1201870E-03 -0.6893438E-04  0.3139148E+05  0.1264086E+04  0.1311696E-02 -0.3768255E-03
  0.1010000E+02  0.1201870E-03  0.8184586E-04  0.3139148E+05  0.1838435E+04  0.1311696E-02  0.3118378E-03
  0.1020000E+02  0.1201870E-03  0.2347309E-03  0.3139148E+05  0.2216219E+04  0.1311696E-02  0.1007203E-02
  0.1030000E+02  0.1201870E-03  0.3767718E-03  0.3139148E+05  0.2364095E+04  0.1311696E-02  0.1651214E-02
  0.1040000E+02  0.1201870E-03  0.4954241E-03  0.3139148E+05  0.2272493E+04  0.1311696E-02  0.2187618E-02
  0.1050000E+02  0.1201870E-03  0.5796864E-03  0.3139148E+05  0.1956125E+04  0.1311696E-02  0.2567142E-02
  0.1060000E+02  0.1201870E-03  0.6211168E-03  0.3139148E+05  0.1451814E+04  0.1311696E-02  0.2752130E-02
  0.1070000E+02  0.1201870E-03  0.6146476E-03  0.3139148E+05  0.8144350E+03  0.1311696E-02  0.2720276E-02
  0.1080000E+02  0.1201870E-03  0.5591182E-03  0.3139148E+05  0.1108786E+03  0.1311696E-02  0.2467056E-02
  0.1090000E+02  0.1201870E-03  0.4574797E-03  0.3139148E+05 -0.5867798E+03  0.1311696E-02  0.2006674E-02
  0.1100000E+02  0.1201870E-03  0.3166285E-03  0.3139148E+05 -0.1208715E+04  0.1311696E-02  0.1371277E-02
  0.1110000E+02  0.1201870E-03  0.1469016E-03  0.3139148E+05 -0.1694283E+04  0.1311696E-02  0.6086199E-03
  0.1120000E+02  0.1201870E-03 -0.3873909E-04  0.3139148E+05 -0.1997830E+04  0.1311696E-02 -0.2217174E-03
  0.1130000E+02  0.1201870E-03 -0.2257743E-03  0.3139148E+05 -0.2092991E+04  0.1311696E-02 -0.1053262E-02
  0.1140000E+02  0.1201870E-03 -0.3993233E-03  0.3139148E+05 -0.1974853E+04  0.1311696E-02 -0.1818198E-02
  0.1150000E+02  0.1201870E-03 -0.5453989E-03  0.3139148E+05 -0.1660033E+04  0.1311696E-02 -0.2453141E-02
  0.1160000E+02  0.1201870E-03 -0.6521003E-03  0.3139148E+05 -0.1184446E+04  0.1311696E-02 -0.2904649E-02
  0.1170000E+02  0.1201870E-03 -0.7106151E-03  0.3139148E+05 -0.5994059E+03  0.1311696E-02 -0.3133791E-02