VARIABLES="w (rad/s)"
"abs(F   1   1)" "angle(F   1   1)"
"abs(F   1   2)" "angle(F   1   2)"
"abs(F   1   3)" "angle(F   1   3)"
Zone t="FKforce - beta =   0.000",I=    32,F=POINT
  0.1000000E+00  0.1078873E+04 -0.1570794E+01  0.5036725E+06  0.1661569E-10  0.3891398E+04 -0.1570794E+01
  0.2000000E+00  0.4298386E+04 -0.1570795E+01  0.5004372E+06 -0.5036658E-10  0.1550871E+05 -0.1570797E+01
  0.3000000E+00  0.9607118E+04 -0.1570796E+01  0.4950615E+06  0.1399632E-09  0.3468049E+05 -0.1570796E+01
  0.4000000E+00  0.1691920E+05 -0.1570796E+01  0.4875658E+06 -0.5138144E-09  0.6111920E+05 -0.1570796E+01
  0.5000000E+00  0.2611375E+05 -0.1570796E+01  0.4779846E+06 -0.7394393E-09  0.9441733E+05 -0.1570796E+01
  0.6000001E+00  0.3703467E+05 -0.1570796E+01  0.4663605E+06  0.6799390E-09  0.1340442E+06 -0.1570796E+01
  0.7000000E+00  0.4949035E+05 -0.1570796E+01  0.4527498E+06  0.7846357E-09  0.1793417E+06 -0.1570796E+01
  0.8000001E+00  0.6325321E+05 -0.1570796E+01  0.4372171E+06 -0.9795120E-09  0.2295211E+06 -0.1570796E+01
  0.9000000E+00  0.7805987E+05 -0.1570796E+01  0.4198454E+06  0.2829424E-09  0.2836577E+06 -0.1570796E+01
  0.1000000E+01  0.9361155E+05 -0.1570796E+01  0.4007294E+06  0.3859218E-08  0.3406932E+06 -0.1570796E+01
  0.1100000E+01  0.1095761E+06 -0.1570796E+01  0.3799827E+06  0.1831828E-08  0.3994350E+06 -0.1570796E+01
  0.1200000E+01  0.1255890E+06 -0.1570796E+01  0.3577370E+06 -0.1440560E-08  0.4585614E+06 -0.1570796E+01
  0.1300000E+01  0.1412578E+06 -0.1570796E+01  0.3341439E+06  0.4320368E-09  0.5166385E+06 -0.1570796E+01
  0.1400000E+01  0.1561671E+06 -0.1570796E+01  0.3093784E+06 -0.2235426E-08  0.5721289E+06 -0.1570796E+01
  0.1500000E+01  0.1698849E+06 -0.1570796E+01  0.2836393E+06 -0.6461669E-08  0.6234194E+06 -0.1570796E+01
  0.1600000E+01  0.1819722E+06 -0.1570796E+01  0.2571501E+06 -0.4412110E-08  0.6688632E+06 -0.1570796E+01
  0.1700000E+01  0.1919929E+06 -0.1570796E+01  0.2301600E+06 -0.1438840E-08  0.7068044E+06 -0.1570796E+01
  0.1800000E+01  0.1995303E+06 -0.1570796E+01  0.2029439E+06 -0.1454756E-07  0.7356496E+06 -0.1570796E+01
  0.1900000E+01  0.2041980E+06 -0.1570796E+01  0.1757999E+06  0.3413537E-08  0.7539155E+06 -0.1570796E+01
  0.2000000E+01  0.2056646E+06 -0.1570796E+01  0.1490470E+06  0.1318847E-07  0.7603059E+06 -0.1570796E+01
  0.2100000E+01  0.2036668E+06 -0.1570796E+01  0.1230215E+06 -0.1556621E-07  0.7537801E+06 -0.1570796E+01
  0.2200000E+01  0.1980353E+06 -0.1570796E+01  0.9806909E+05 -0.4664729E-09  0.7336487E+06 -0.1570796E+01
  0.2300000E+01  0.1887107E+06 -0.1570796E+01  0.7453778E+05 -0.1552334E-07  0.6996349E+06 -0.1570796E+01
  0.2400000E+01  0.1757646E+06 -0.1570796E+01  0.5276692E+05 -0.1882790E-07  0.6519557E+06 -0.1570796E+01
  0.2500000E+01  0.1594151E+06 -0.1570796E+01  0.3307650E+05  0.9808417E-08  0.5913859E+06 -0.1570796E+01
  0.2600000E+01  0.1400361E+06 -0.1570796E+01  0.1575244E+05 -0.5259153E-07  0.5192932E+06 -0.1570796E+01
  0.2700000E+01  0.1181608E+06 -0.1570796E+01  0.1032794E+04 -0.2736835E-05  0.4376601E+06 -0.1570796E+01
  0.2800000E+01  0.9447535E+05 -0.1570796E+01  0.1090677E+05 -0.3141593E+01  0.3490562E+06 -0.1570796E+01
  0.2900000E+01  0.6980338E+05 -0.1570796E+01  0.1996755E+05 -0.3141593E+01  0.2565814E+06 -0.1570796E+01
  0.3000000E+01  0.4507564E+05 -0.1570796E+01  0.2613959E+05 -0.3141593E+01  0.1637540E+06 -0.1570796E+01
  0.3100000E+01  0.2128921E+05 -0.1570796E+01  0.2951141E+05 -0.3141593E+01  0.7435716E+05 -0.1570796E+01
  0.3200000E+01  0.5454763E+03  0.1570797E+01  0.3027448E+05 -0.3141593E+01  0.7763239E+04  0.1570797E+01
