VARIABLES="w (rad/s)"
"abs(F   1   1)" "angle(F   1   1)"
"abs(F   1   2)" "angle(F   1   2)"
"abs(F   1   3)" "angle(F   1   3)"
Zone t="Diffraction force - beta =   0.000 deg",I=    32,F=POINT
  0.1000000E+00  0.2580785E+03 -0.1570796E+01  0.1007947E+04 -0.3132015E+01  0.1127929E+04 -0.1570796E+01
  0.2000000E+00  0.1026393E+04 -0.1570791E+01  0.4124501E+04 -0.3104999E+01  0.4484938E+04 -0.1570791E+01
  0.3000000E+00  0.2282899E+04 -0.1570744E+01  0.9462107E+04 -0.3063917E+01  0.9982751E+04 -0.1570742E+01
  0.4000000E+00  0.3978396E+04 -0.1570508E+01  0.1704596E+05 -0.3012654E+01  0.1740700E+05 -0.1570499E+01
  0.5000000E+00  0.6068401E+04 -0.1569737E+01  0.2673287E+05 -0.2954752E+01  0.2657735E+05 -0.1569704E+01
  0.6000001E+00  0.8486021E+04 -0.1567779E+01  0.3823670E+05 -0.2893374E+01  0.3721156E+05 -0.1567684E+01
  0.7000000E+00  0.1113333E+05 -0.1563609E+01  0.5119596E+05 -0.2831465E+01  0.4888906E+05 -0.1563383E+01
  0.8000001E+00  0.1388919E+05 -0.1555825E+01  0.6512133E+05 -0.2770933E+01  0.6105919E+05 -0.1555345E+01
  0.9000000E+00  0.1665754E+05 -0.1542864E+01  0.7953877E+05 -0.2713220E+01  0.7335852E+05 -0.1541962E+01
  0.1000000E+01  0.1915251E+05 -0.1522932E+01  0.9401552E+05 -0.2659764E+01  0.8443491E+05 -0.1521337E+01
  0.1100000E+01  0.2118129E+05 -0.1494945E+01  0.1081270E+06 -0.2610811E+01  0.9349733E+05 -0.1492338E+01
  0.1200000E+01  0.2236117E+05 -0.1458057E+01  0.1214756E+06 -0.2566648E+01  0.9874405E+05 -0.1453937E+01
  0.1300000E+01  0.2227527E+05 -0.1412565E+01  0.1338088E+06 -0.2528244E+01  0.9828031E+05 -0.1406202E+01
  0.1400000E+01  0.2059729E+05 -0.1360697E+01  0.1447953E+06 -0.2494798E+01  0.9060611E+05 -0.1350947E+01
  0.1500000E+01  0.1703160E+05 -0.1306845E+01  0.1541709E+06 -0.2466107E+01  0.7430562E+05 -0.1291375E+01
  0.1600000E+01  0.1143065E+05 -0.1261403E+01  0.1617125E+06 -0.2442010E+01  0.4863193E+05 -0.1233478E+01
  0.1700000E+01  0.3865478E+04 -0.1304844E+01  0.1672287E+06 -0.2422323E+01  0.1375516E+05 -0.1221178E+01
  0.1800000E+01  0.5571978E+04  0.2169803E+01  0.1705482E+06 -0.2407005E+01  0.2940529E+05  0.2090656E+01
  0.1900000E+01  0.1627773E+05  0.2152707E+01  0.1715404E+06 -0.2395905E+01  0.7901275E+05  0.2126980E+01
  0.2000000E+01  0.2792399E+05  0.2187073E+01  0.1700874E+06 -0.2389189E+01  0.1330897E+06  0.2173669E+01
  0.2100000E+01  0.3999931E+05  0.2224466E+01  0.1661410E+06 -0.2386878E+01  0.1893358E+06  0.2217193E+01
  0.2200000E+01  0.5200866E+05  0.2258493E+01  0.1596869E+06 -0.2389325E+01  0.2454636E+06  0.2255288E+01
  0.2300000E+01  0.6346706E+05  0.2287591E+01  0.1507612E+06 -0.2397162E+01  0.2991860E+06  0.2287555E+01
  0.2400000E+01  0.7390392E+05  0.2311476E+01  0.1394712E+06 -0.2411411E+01  0.3482640E+06  0.2314195E+01
  0.2500000E+01  0.8286953E+05  0.2330262E+01  0.1260145E+06 -0.2433831E+01  0.3905357E+06  0.2335521E+01
  0.2600000E+01  0.8995572E+05  0.2344064E+01  0.1105964E+06 -0.2468203E+01  0.4240193E+06  0.2351816E+01
  0.2700000E+01  0.9478074E+05  0.2352738E+01  0.9321974E+05 -0.2523834E+01  0.4468351E+06  0.2363018E+01
  0.2800000E+01  0.9705029E+05  0.2356364E+01  0.6996648E+05 -0.2675545E+01  0.4575253E+06  0.2369298E+01
  0.2900000E+01  0.9654361E+05  0.2354735E+01  0.6409746E+05 -0.2570843E+01  0.4549815E+06  0.2370532E+01
  0.3000000E+01  0.9311454E+05  0.2346683E+01  0.4479546E+05 -0.2781277E+01  0.4384335E+06  0.2365662E+01
  0.3100000E+01  0.8675595E+05  0.2330665E+01  0.2978066E+05 -0.3109100E+01  0.4077661E+06  0.2353275E+01
  0.3200000E+01  0.7756114E+05  0.2302860E+01  0.2150567E+05  0.2552011E+01  0.3634653E+06  0.2329763E+01
