VARIABLES="w (rad/s)"
"abs(F   1   1)" "angle(F   1   1)"
"abs(F   1   2)" "angle(F   1   2)"
"abs(F   1   3)" "angle(F   1   3)"
Zone t="Diffraction force - beta =   0.000 deg",I=   100,F=POINT
  0.1000000E+00  0.6858577E-02 -0.1570796E+01  0.4410920E-01 -0.3141279E+01  0.2112358E-01 -0.1570796E+01
  0.3010101E+00  0.6154889E-01 -0.1570796E+01  0.4014056E+00 -0.3138769E+01  0.1895635E+00 -0.1570796E+01
  0.5020202E+00  0.1710311E+00 -0.1570796E+01  0.1122649E+01 -0.3133816E+01  0.5267550E+00 -0.1570796E+01
  0.7030303E+00  0.3336051E+00 -0.1570796E+01  0.2219947E+01 -0.3126563E+01  0.1027465E+01 -0.1570796E+01
  0.9040404E+00  0.5501087E+00 -0.1570795E+01  0.3699599E+01 -0.3117138E+01  0.1694271E+01 -0.1570795E+01
  0.1105051E+01  0.8189031E+00 -0.1570791E+01  0.5569949E+01 -0.3105711E+01  0.2522124E+01 -0.1570791E+01
  0.1306061E+01  0.1140173E+01 -0.1570783E+01  0.7835076E+01 -0.3092448E+01  0.3511586E+01 -0.1570783E+01
  0.1507071E+01  0.1510834E+01 -0.1570764E+01  0.1050380E+02 -0.3077570E+01  0.4653176E+01 -0.1570764E+01
  0.1708081E+01  0.1924083E+01 -0.1570729E+01  0.1357046E+02 -0.3061227E+01  0.5925917E+01 -0.1570729E+01
  0.1909091E+01  0.2390842E+01 -0.1570666E+01  0.1703435E+02 -0.3043619E+01  0.7363470E+01 -0.1570666E+01
  0.2110101E+01  0.2891684E+01 -0.1570561E+01  0.2088640E+02 -0.3024921E+01  0.8905972E+01 -0.1570561E+01
  0.2311111E+01  0.3437930E+01 -0.1570395E+01  0.2511841E+02 -0.3005322E+01  0.1058831E+02 -0.1570395E+01
  0.2512121E+01  0.4027052E+01 -0.1570143E+01  0.2970370E+02 -0.2984922E+01  0.1240269E+02 -0.1570144E+01
  0.2713131E+01  0.4632226E+01 -0.1569772E+01  0.3464380E+02 -0.2964006E+01  0.1426650E+02 -0.1569772E+01
  0.2914141E+01  0.5284393E+01 -0.1569249E+01  0.3990756E+02 -0.2942659E+01  0.1627505E+02 -0.1569249E+01
  0.3115151E+01  0.5970648E+01 -0.1568528E+01  0.4545272E+02 -0.2920921E+01  0.1838854E+02 -0.1568528E+01
  0.3316161E+01  0.6656671E+01 -0.1567548E+01  0.5128468E+02 -0.2899124E+01  0.2050131E+02 -0.1567549E+01
  0.3517171E+01  0.7364277E+01 -0.1566257E+01  0.5736137E+02 -0.2877297E+01  0.2268055E+02 -0.1566257E+01
  0.3718182E+01  0.8104958E+01 -0.1564599E+01  0.6365113E+02 -0.2855536E+01  0.2496166E+02 -0.1564599E+01
  0.3919192E+01  0.8854002E+01 -0.1562492E+01  0.7010284E+02 -0.2833826E+01  0.2726841E+02 -0.1562493E+01
  0.4120202E+01  0.9580774E+01 -0.1559835E+01  0.7671755E+02 -0.2812462E+01  0.2950661E+02 -0.1559836E+01
  0.4321212E+01  0.1030134E+02 -0.1556560E+01  0.8347409E+02 -0.2791581E+01  0.3172566E+02 -0.1556561E+01
  0.4522222E+01  0.1102451E+02 -0.1552607E+01  0.9030643E+02 -0.2771013E+01  0.3395276E+02 -0.1552607E+01
  0.4723232E+01  0.1173911E+02 -0.1547888E+01  0.9718425E+02 -0.2750823E+01  0.3615340E+02 -0.1547889E+01
  0.4924242E+01  0.1242151E+02 -0.1542296E+01  0.1040961E+03 -0.2731196E+01  0.3825481E+02 -0.1542297E+01
  0.5125252E+01  0.1303915E+02 -0.1535684E+01  0.1110074E+03 -0.2712143E+01  0.4015678E+02 -0.1535685E+01
  0.5326262E+01  0.1359643E+02 -0.1528007E+01  0.1179013E+03 -0.2693768E+01  0.4187289E+02 -0.1528008E+01
  0.5527273E+01  0.1409923E+02 -0.1519255E+01  0.1247498E+03 -0.2676058E+01  0.4342115E+02 -0.1519255E+01
  0.5728283E+01  0.1453650E+02 -0.1509393E+01  0.1315195E+03 -0.2658980E+01  0.4476756E+02 -0.1509394E+01
  0.5929293E+01  0.1488399E+02 -0.1498343E+01  0.1381690E+03 -0.2642413E+01  0.4583741E+02 -0.1498343E+01
  0.6130303E+01  0.1511876E+02 -0.1486019E+01  0.1446865E+03 -0.2626473E+01  0.4656006E+02 -0.1486018E+01
  0.6331313E+01  0.1521219E+02 -0.1472292E+01  0.1510616E+03 -0.2611276E+01  0.4684745E+02 -0.1472291E+01
  0.6532323E+01  0.1514699E+02 -0.1457107E+01  0.1572811E+03 -0.2596953E+01  0.4664634E+02 -0.1457106E+01
  0.6733334E+01  0.1492054E+02 -0.1440617E+01  0.1633128E+03 -0.2583353E+01  0.4594864E+02 -0.1440615E+01
  0.6934343E+01  0.1451728E+02 -0.1422837E+01  0.1691356E+03 -0.2570405E+01  0.4470636E+02 -0.1422834E+01
  0.7135354E+01  0.1392385E+02 -0.1403837E+01  0.1747340E+03 -0.2558169E+01  0.4287836E+02 -0.1403832E+01
  0.7336363E+01  0.1311897E+02 -0.1383510E+01  0.1800889E+03 -0.2546630E+01  0.4039919E+02 -0.1383501E+01
  0.7537374E+01  0.1208986E+02 -0.1361874E+01  0.1851832E+03 -0.2535832E+01  0.3722946E+02 -0.1361862E+01
  0.7738384E+01  0.1082553E+02 -0.1338937E+01  0.1899958E+03 -0.2525649E+01  0.3333533E+02 -0.1338920E+01
  0.7939394E+01  0.9314899E+01 -0.1314420E+01  0.1945139E+03 -0.2516049E+01  0.2868272E+02 -0.1314394E+01
  0.8140405E+01  0.7550244E+01 -0.1287517E+01  0.1987215E+03 -0.2507075E+01  0.2324783E+02 -0.1287474E+01
  0.8341414E+01  0.5529513E+01 -0.1256104E+01  0.2026046E+03 -0.2498699E+01  0.1702436E+02 -0.1256029E+01
  0.8542424E+01  0.3253272E+01 -0.1210764E+01  0.2061484E+03 -0.2491014E+01  0.1001405E+02 -0.1210596E+01
  0.8743435E+01  0.7366170E+00 -0.1000879E+01  0.2093418E+03 -0.2483958E+01  0.2263851E+01 -0.9995838E+00
  0.8944445E+01  0.2073723E+01  0.1838470E+01  0.2121705E+03 -0.2477456E+01  0.6391938E+01  0.1838216E+01
  0.9145455E+01  0.5090123E+01  0.1911874E+01  0.2146283E+03 -0.2471495E+01  0.1568146E+02  0.1911726E+01
  0.9346465E+01  0.8336873E+01  0.1948132E+01  0.2167004E+03 -0.2466137E+01  0.2568040E+02  0.1948021E+01
  0.9547475E+01  0.1179660E+02  0.1976747E+01  0.2183779E+03 -0.2461367E+01  0.3633516E+02  0.1976653E+01
  0.9748485E+01  0.1545177E+02  0.2002248E+01  0.2196488E+03 -0.2457195E+01  0.4759170E+02  0.2002164E+01
  0.9949495E+01  0.1928420E+02  0.2025889E+01  0.2205003E+03 -0.2453656E+01  0.5939411E+02  0.2025811E+01
  0.1015051E+02  0.2327244E+02  0.2048234E+01  0.2209310E+03 -0.2450696E+01  0.7167628E+02  0.2048159E+01
  0.1035151E+02  0.2739482E+02  0.2069460E+01  0.2209333E+03 -0.2448294E+01  0.8437137E+02  0.2069388E+01
  0.1055252E+02  0.3162795E+02  0.2089734E+01  0.2205069E+03 -0.2446431E+01  0.9740742E+02  0.2089664E+01
  0.1075354E+02  0.3594991E+02  0.2108996E+01  0.2196360E+03 -0.2445200E+01  0.1107172E+03  0.2108926E+01
  0.1095455E+02  0.4033634E+02  0.2127285E+01  0.2183161E+03 -0.2444614E+01  0.1242252E+03  0.2127216E+01
  0.1115556E+02  0.4476033E+02  0.2144727E+01  0.2165539E+03 -0.2444613E+01  0.1378490E+03  0.2144658E+01
  0.1135657E+02  0.4920004E+02  0.2161186E+01  0.2143269E+03 -0.2445319E+01  0.1515209E+03  0.2161117E+01
  0.1155758E+02  0.5362844E+02  0.2176795E+01  0.2116527E+03 -0.2446686E+01  0.1651581E+03  0.2176725E+01
  0.1175859E+02  0.5802118E+02  0.2191536E+01  0.2085317E+03 -0.2448741E+01  0.1786853E+03  0.2191464E+01
  0.1195960E+02  0.6235288E+02  0.2205403E+01  0.2049635E+03 -0.2451510E+01  0.1920248E+03  0.2205330E+01
  0.1216061E+02  0.6659777E+02  0.2218502E+01  0.2009694E+03 -0.2454993E+01  0.2050964E+03  0.2218428E+01
  0.1236162E+02  0.7073275E+02  0.2230728E+01  0.1965347E+03 -0.2459315E+01  0.2178296E+03  0.2230653E+01
  0.1256263E+02  0.7473220E+02  0.2242081E+01  0.1916527E+03 -0.2464557E+01  0.2301457E+03  0.2242003E+01
  0.1276364E+02  0.7856981E+02  0.2252742E+01  0.1863720E+03 -0.2470703E+01  0.2419631E+03  0.2252664E+01
  0.1296465E+02  0.8222142E+02  0.2262609E+01  0.1806718E+03 -0.2477844E+01  0.2532080E+03  0.2262528E+01
  0.1316566E+02  0.8566338E+02  0.2271657E+01  0.1745516E+03 -0.2486116E+01  0.2638069E+03  0.2271574E+01
  0.1336667E+02  0.8887393E+02  0.2279993E+01  0.1680493E+03 -0.2495628E+01  0.2736934E+03  0.2279908E+01
  0.1356768E+02  0.9182965E+02  0.2287603E+01  0.1611756E+03 -0.2506557E+01  0.2827953E+03  0.2287515E+01
  0.1376869E+02  0.9450614E+02  0.2294488E+01  0.1539378E+03 -0.2519001E+01  0.2910372E+03  0.2294399E+01
  0.1396970E+02  0.9688696E+02  0.2300770E+01  0.1463839E+03 -0.2533232E+01  0.2983682E+03  0.2300678E+01
  0.1417071E+02  0.9895113E+02  0.2306355E+01  0.1385017E+03 -0.2549762E+01  0.3047249E+03  0.2306260E+01
  0.1437172E+02  0.1006761E+03  0.2311182E+01  0.1302470E+03 -0.2568861E+01  0.3100363E+03  0.2311085E+01
  0.1457273E+02  0.1020449E+03  0.2315282E+01  0.1216087E+03 -0.2591234E+01  0.3142516E+03  0.2315181E+01
  0.1477374E+02  0.1030451E+03  0.2318792E+01  0.1126349E+03 -0.2617885E+01  0.3173313E+03  0.2318689E+01
  0.1497475E+02  0.1036552E+03  0.2321549E+01  0.1031123E+03 -0.2649862E+01  0.3192101E+03  0.2321443E+01
  0.1517576E+02  0.1038580E+03  0.2323516E+01  0.9269761E+02 -0.2689729E+01  0.3198350E+03  0.2323405E+01
  0.1537677E+02  0.1036530E+03  0.2324761E+01  0.8057249E+02 -0.2744209E+01  0.3192035E+03  0.2324647E+01
  0.1557778E+02  0.1030313E+03  0.2325244E+01  0.6313777E+02 -0.2834469E+01  0.3172892E+03  0.2325124E+01
  0.1577879E+02  0.1019842E+03  0.2324944E+01  0.6543042E+01 -0.2951218E+01  0.3140653E+03  0.2324822E+01
  0.1597980E+02  0.1005121E+03  0.2323839E+01  0.1173887E+03 -0.2471120E+01  0.3095322E+03  0.2323712E+01
  0.1618081E+02  0.9861840E+02  0.2321858E+01  0.8009843E+02 -0.2748625E+01  0.3037014E+03  0.2321725E+01
  0.1638182E+02  0.9629870E+02  0.2318823E+01  0.6530364E+02 -0.2876540E+01  0.2965585E+03  0.2318684E+01
  0.1658283E+02  0.9354402E+02  0.2314598E+01  0.5519455E+02 -0.2999003E+01  0.2880765E+03  0.2314453E+01
  0.1678384E+02  0.9035861E+02  0.2309045E+01  0.4723004E+02 -0.3138902E+01  0.2782679E+03  0.2308894E+01
  0.1698485E+02  0.8677581E+02  0.2302054E+01  0.4076738E+02  0.2975866E+01  0.2672360E+03  0.2301896E+01
  0.1718586E+02  0.8278564E+02  0.2293277E+01  0.3598861E+02  0.2771549E+01  0.2549497E+03  0.2293111E+01
  0.1738687E+02  0.7838781E+02  0.2282341E+01  0.3305304E+02  0.2536529E+01  0.2414081E+03  0.2282168E+01
  0.1758788E+02  0.7358445E+02  0.2268508E+01  0.3201332E+02  0.2288131E+01  0.2266178E+03  0.2268324E+01
  0.1778889E+02  0.6839592E+02  0.2250755E+01  0.3267993E+02  0.2050712E+01  0.2106411E+03  0.2250562E+01
  0.1798990E+02  0.6274451E+02  0.2227203E+01  0.3467173E+02  0.1844368E+01  0.1932387E+03  0.2226999E+01
  0.1819091E+02  0.5649014E+02  0.2193592E+01  0.3745539E+02  0.1675341E+01  0.1739794E+03  0.2193377E+01
  0.1839192E+02  0.4895434E+02  0.2137244E+01  0.4064183E+02  0.1539718E+01  0.1507722E+03  0.2137021E+01
  0.1859293E+02  0.3483461E+02  0.1966226E+01  0.4392332E+02  0.1430285E+01  0.1072792E+03  0.1966023E+01
  0.1879394E+02  0.5657319E+02  0.2530334E+01  0.4704109E+02  0.1340197E+01  0.1742805E+03  0.2530015E+01
  0.1899495E+02  0.4133581E+02  0.2225560E+01  0.4991309E+02  0.1264870E+01  0.1273389E+03  0.2225250E+01
  0.1919596E+02  0.3351456E+02  0.2115968E+01  0.5243139E+02  0.1200420E+01  0.1032528E+03  0.2115651E+01
  0.1939697E+02  0.2699730E+02  0.2004864E+01  0.5453782E+02  0.1143838E+01  0.8318511E+02  0.2004553E+01
  0.1959798E+02  0.2113459E+02  0.1853989E+01  0.5614114E+02  0.1092633E+01  0.6513376E+02  0.1853732E+01
  0.1979899E+02  0.1614826E+02  0.1620205E+01  0.5718729E+02  0.1045604E+01  0.4978030E+02  0.1620147E+01
  0.2000000E+02  0.1269252E+02  0.1246687E+01  0.5768770E+02  0.1001182E+01  0.3913471E+02  0.1247146E+01
