VARIABLES="w (rad/s)"
"abs(F   1   1)" "angle(F   1   1)"
"abs(F   1   2)" "angle(F   1   2)"
"abs(F   1   3)" "angle(F   1   3)"
Zone t="Diffraction force - beta =   0.000 deg",I=   100,F=POINT
  0.1000000E+00  0.2710309E-01 -0.1570727E+01  0.5128191E+03 -0.2698016E-07  0.8347184E-01 -0.1570703E+01
  0.3010101E+00  0.2449414E+00 -0.1570815E+01  0.5122984E+03 -0.2212508E-05  0.7543693E+00 -0.1570793E+01
  0.5020202E+00  0.6809330E+00 -0.1570796E+01  0.5112500E+03 -0.1707651E-04  0.2097129E+01 -0.1570789E+01
  0.7030303E+00  0.1332981E+01 -0.1570797E+01  0.5096608E+03 -0.6546242E-04  0.4105301E+01 -0.1570798E+01
  0.9040404E+00  0.2201326E+01 -0.1570796E+01  0.5075252E+03 -0.1782447E-03  0.6779615E+01 -0.1570795E+01
  0.1105051E+01  0.3283521E+01 -0.1570796E+01  0.5048358E+03 -0.3958044E-03  0.1011255E+02 -0.1570795E+01
  0.1306061E+01  0.4578749E+01 -0.1570793E+01  0.5015875E+03 -0.7673581E-03  0.1410155E+02 -0.1570792E+01
  0.1507071E+01  0.6082699E+01 -0.1570789E+01  0.4977739E+03 -0.1350056E-02  0.1873337E+02 -0.1570787E+01
  0.1708081E+01  0.7787111E+01 -0.1570779E+01  0.4934026E+03 -0.2207984E-02  0.2398258E+02 -0.1570781E+01
  0.1909091E+01  0.9701269E+01 -0.1570764E+01  0.4884793E+03 -0.3411103E-02  0.2987772E+02 -0.1570764E+01
  0.2110101E+01  0.1180381E+02 -0.1570739E+01  0.4830183E+03 -0.5033635E-02  0.3635302E+02 -0.1570739E+01
  0.2311111E+01  0.1410394E+02 -0.1570698E+01  0.4770353E+03 -0.7153239E-02  0.4343685E+02 -0.1570698E+01
  0.2512121E+01  0.1659673E+02 -0.1570638E+01  0.4705663E+03 -0.9849325E-02  0.5111401E+02 -0.1570638E+01
  0.2713131E+01  0.1925270E+02 -0.1570550E+01  0.4636193E+03 -0.1320085E-01  0.5929366E+02 -0.1570550E+01
  0.2914141E+01  0.2209987E+02 -0.1570426E+01  0.4562365E+03 -0.1728729E-01  0.6806215E+02 -0.1570426E+01
  0.3115151E+01  0.2512214E+02 -0.1570257E+01  0.4484747E+03 -0.2218572E-01  0.7736987E+02 -0.1570257E+01
  0.3316161E+01  0.2828163E+02 -0.1570032E+01  0.4403409E+03 -0.2796709E-01  0.8710015E+02 -0.1570032E+01
  0.3517171E+01  0.3159643E+02 -0.1569738E+01  0.4318904E+03 -0.3470207E-01  0.9730878E+02 -0.1569738E+01
  0.3718182E+01  0.3507386E+02 -0.1569364E+01  0.4231699E+03 -0.4245557E-01  0.1080181E+03 -0.1569364E+01
  0.3919192E+01  0.3868474E+02 -0.1568895E+01  0.4142446E+03 -0.5128764E-01  0.1191384E+03 -0.1568896E+01
  0.4120202E+01  0.4239359E+02 -0.1568319E+01  0.4051246E+03 -0.6124581E-01  0.1305601E+03 -0.1568319E+01
  0.4321212E+01  0.4621129E+02 -0.1567623E+01  0.3958402E+03 -0.7237518E-01  0.1423173E+03 -0.1567623E+01
  0.4522222E+01  0.5014097E+02 -0.1566797E+01  0.3864730E+03 -0.8472560E-01  0.1544194E+03 -0.1566797E+01
  0.4723232E+01  0.5416557E+02 -0.1565832E+01  0.3770631E+03 -0.9833159E-01  0.1668134E+03 -0.1565832E+01
  0.4924242E+01  0.5825491E+02 -0.1564720E+01  0.3676255E+03 -0.1132141E+00  0.1794067E+03 -0.1564720E+01
  0.5125252E+01  0.6236946E+02 -0.1563457E+01  0.3582000E+03 -0.1293954E+00  0.1920778E+03 -0.1563457E+01
  0.5326262E+01  0.6650629E+02 -0.1562051E+01  0.3488050E+03 -0.1468901E+00  0.2048173E+03 -0.1562051E+01
  0.5527273E+01  0.7066317E+02 -0.1560517E+01  0.3394707E+03 -0.1657209E+00  0.2176189E+03 -0.1560516E+01
  0.5728283E+01  0.7482092E+02 -0.1558874E+01  0.3302328E+03 -0.1859008E+00  0.2304227E+03 -0.1558874E+01
  0.5929293E+01  0.7894623E+02 -0.1557148E+01  0.3211382E+03 -0.2074467E+00  0.2431263E+03 -0.1557148E+01
  0.6130303E+01  0.8300672E+02 -0.1555373E+01  0.3121906E+03 -0.2303480E+00  0.2556302E+03 -0.1555373E+01
  0.6331313E+01  0.8696391E+02 -0.1553592E+01  0.3033860E+03 -0.2545920E+00  0.2678163E+03 -0.1553592E+01
  0.6532323E+01  0.9079041E+02 -0.1551868E+01  0.2947183E+03 -0.2801477E+00  0.2795994E+03 -0.1551868E+01
  0.6733334E+01  0.9447318E+02 -0.1550293E+01  0.2862199E+03 -0.3070368E+00  0.2909406E+03 -0.1550293E+01
  0.6934343E+01  0.9798647E+02 -0.1548953E+01  0.2779103E+03 -0.3352732E+00  0.3017588E+03 -0.1548953E+01
  0.7135354E+01  0.1013067E+03 -0.1547953E+01  0.2697862E+03 -0.3648344E+00  0.3119826E+03 -0.1547953E+01
  0.7336363E+01  0.1044025E+03 -0.1547397E+01  0.2618537E+03 -0.3957135E+00  0.3215155E+03 -0.1547397E+01
  0.7537374E+01  0.1072516E+03 -0.1547414E+01  0.2541083E+03 -0.4278826E+00  0.3302888E+03 -0.1547414E+01
  0.7738384E+01  0.1098349E+03 -0.1548146E+01  0.2465731E+03 -0.4613601E+00  0.3382428E+03 -0.1548146E+01
  0.7939394E+01  0.1121335E+03 -0.1549730E+01  0.2392516E+03 -0.4961557E+00  0.3453204E+03 -0.1549730E+01
  0.8140405E+01  0.1141327E+03 -0.1552305E+01  0.2321364E+03 -0.5322344E+00  0.3514767E+03 -0.1552305E+01
  0.8341414E+01  0.1158257E+03 -0.1556019E+01  0.2252305E+03 -0.5695924E+00  0.3566884E+03 -0.1556019E+01
  0.8542424E+01  0.1172079E+03 -0.1561017E+01  0.2185127E+03 -0.6081827E+00  0.3609437E+03 -0.1561017E+01
  0.8743435E+01  0.1182785E+03 -0.1567436E+01  0.2119891E+03 -0.6480255E+00  0.3642394E+03 -0.1567436E+01
  0.8944445E+01  0.1190422E+03 -0.1575403E+01  0.2056711E+03 -0.6891195E+00  0.3665898E+03 -0.1575403E+01
  0.9145455E+01  0.1195078E+03 -0.1585044E+01  0.1995562E+03 -0.7314780E+00  0.3680228E+03 -0.1585044E+01
  0.9346465E+01  0.1196875E+03 -0.1596463E+01  0.1936271E+03 -0.7750621E+00  0.3685746E+03 -0.1596463E+01
  0.9547475E+01  0.1195965E+03 -0.1609757E+01  0.1878820E+03 -0.8198729E+00  0.3682933E+03 -0.1609757E+01
  0.9748485E+01  0.1192530E+03 -0.1625008E+01  0.1823137E+03 -0.8658909E+00  0.3672344E+03 -0.1625008E+01
  0.9949495E+01  0.1186750E+03 -0.1642281E+01  0.1769091E+03 -0.9130923E+00  0.3654529E+03 -0.1642281E+01
  0.1015051E+02  0.1178845E+03 -0.1661635E+01  0.1716752E+03 -0.9615113E+00  0.3630173E+03 -0.1661635E+01
  0.1035151E+02  0.1169021E+03 -0.1683105E+01  0.1666131E+03 -0.1011133E+01  0.3599906E+03 -0.1683106E+01
  0.1055252E+02  0.1157502E+03 -0.1706731E+01  0.1617236E+03 -0.1061981E+01  0.3564427E+03 -0.1706731E+01
  0.1075354E+02  0.1144470E+03 -0.1732514E+01  0.1569817E+03 -0.1114002E+01  0.3524279E+03 -0.1732514E+01
  0.1095455E+02  0.1130119E+03 -0.1760460E+01  0.1523814E+03 -0.1167196E+01  0.3480079E+03 -0.1760460E+01
  0.1115556E+02  0.1114686E+03 -0.1790578E+01  0.1479355E+03 -0.1221594E+01  0.3432542E+03 -0.1790578E+01
  0.1135657E+02  0.1098283E+03 -0.1822835E+01  0.1436104E+03 -0.1277109E+01  0.3382023E+03 -0.1822835E+01
  0.1155758E+02  0.1081120E+03 -0.1857236E+01  0.1394203E+03 -0.1333828E+01  0.3329163E+03 -0.1857236E+01
  0.1175859E+02  0.1063338E+03 -0.1893752E+01  0.1353602E+03 -0.1391748E+01  0.3274388E+03 -0.1893752E+01
  0.1195960E+02  0.1045061E+03 -0.1932348E+01  0.1314244E+03 -0.1450842E+01  0.3218095E+03 -0.1932348E+01
  0.1216061E+02  0.1026461E+03 -0.1973019E+01  0.1276234E+03 -0.1511192E+01  0.3160812E+03 -0.1973018E+01
  0.1236162E+02  0.1007574E+03 -0.2015706E+01  0.1239276E+03 -0.1572732E+01  0.3102641E+03 -0.2015706E+01
  0.1256263E+02  0.9884796E+02 -0.2060365E+01  0.1203188E+03 -0.1635420E+01  0.3043832E+03 -0.2060365E+01
  0.1276364E+02  0.9693781E+02 -0.2106996E+01  0.1168296E+03 -0.1699432E+01  0.2985005E+03 -0.2106996E+01
  0.1296465E+02  0.9502598E+02 -0.2155525E+01  0.1134305E+03 -0.1764591E+01  0.2926122E+03 -0.2155525E+01
  0.1316566E+02  0.9311478E+02 -0.2205911E+01  0.1100990E+03 -0.1830899E+01  0.2867265E+03 -0.2205909E+01
  0.1336667E+02  0.9121645E+02 -0.2258158E+01  0.1068471E+03 -0.1898519E+01  0.2808796E+03 -0.2258157E+01
  0.1356768E+02  0.8933311E+02 -0.2312222E+01  0.1036609E+03 -0.1967504E+01  0.2750795E+03 -0.2312221E+01
  0.1376869E+02  0.8746803E+02 -0.2368043E+01  0.1005304E+03 -0.2037757E+01  0.2693361E+03 -0.2368042E+01
  0.1396970E+02  0.8563493E+02 -0.2425643E+01  0.9746832E+02 -0.2109551E+01  0.2636904E+03 -0.2425641E+01
  0.1417071E+02  0.8382716E+02 -0.2484976E+01  0.9442461E+02 -0.2183149E+01  0.2581229E+03 -0.2484976E+01
  0.1437172E+02  0.8204033E+02 -0.2545978E+01  0.9133540E+02 -0.2258339E+01  0.2526202E+03 -0.2545976E+01
  0.1457273E+02  0.8027862E+02 -0.2608643E+01  0.8814828E+02 -0.2335602E+01  0.2471946E+03 -0.2608641E+01
  0.1477374E+02  0.7855821E+02 -0.2672950E+01  0.8486945E+02 -0.2415835E+01  0.2418963E+03 -0.2672949E+01
  0.1497475E+02  0.7686262E+02 -0.2738837E+01  0.8125763E+02 -0.2499166E+01  0.2366749E+03 -0.2738834E+01
  0.1517576E+02  0.7518804E+02 -0.2806255E+01  0.7692223E+02 -0.2587478E+01  0.2315172E+03 -0.2806256E+01
  0.1537677E+02  0.7354668E+02 -0.2875280E+01  0.7099461E+02 -0.2686864E+01  0.2264625E+03 -0.2875278E+01
  0.1557778E+02  0.7193777E+02 -0.2945899E+01  0.5985506E+02 -0.2817025E+01  0.2215071E+03 -0.2945899E+01
  0.1577879E+02  0.7036149E+02 -0.3018056E+01  0.9684146E+01 -0.3013392E+01  0.2166535E+03 -0.3018054E+01
  0.1597980E+02  0.6882179E+02 -0.3091762E+01  0.1248647E+03 -0.2517755E+01  0.2119116E+03 -0.3091760E+01
  0.1618081E+02  0.6732050E+02  0.3116128E+01  0.9422041E+02 -0.2810013E+01  0.2072880E+03  0.3116130E+01
  0.1638182E+02  0.6584648E+02  0.3039220E+01  0.8510674E+02 -0.2939208E+01  0.2027484E+03  0.3039222E+01
  0.1658283E+02  0.6438753E+02  0.2960769E+01  0.8012942E+02 -0.3043550E+01  0.1982554E+03  0.2960770E+01
  0.1678384E+02  0.6293990E+02  0.2880745E+01  0.7660611E+02 -0.3139934E+01  0.1937971E+03  0.2880748E+01
  0.1698485E+02  0.6152528E+02  0.2798979E+01  0.7365321E+02  0.3050154E+01  0.1894407E+03  0.2798980E+01
  0.1718586E+02  0.6011812E+02  0.2715459E+01  0.7114039E+02  0.2957601E+01  0.1851071E+03  0.2715460E+01
  0.1738687E+02  0.5870039E+02  0.2630099E+01  0.6892370E+02  0.2865311E+01  0.1807409E+03  0.2630101E+01
  0.1758788E+02  0.5724845E+02  0.2542407E+01  0.6689664E+02  0.2772665E+01  0.1762692E+03  0.2542406E+01
  0.1778889E+02  0.5575847E+02  0.2451626E+01  0.6498055E+02  0.2679183E+01  0.1716800E+03  0.2451627E+01
  0.1798990E+02  0.5412984E+02  0.2356606E+01  0.6318817E+02  0.2584995E+01  0.1666632E+03  0.2356608E+01
  0.1819091E+02  0.5220239E+02  0.2253921E+01  0.6148375E+02  0.2490739E+01  0.1607257E+03  0.2253921E+01
  0.1839192E+02  0.4930915E+02  0.2132674E+01  0.5987421E+02  0.2395930E+01  0.1518115E+03  0.2132675E+01
  0.1859293E+02  0.4040526E+02  0.1909322E+01  0.5833334E+02  0.2300232E+01  0.1243738E+03  0.1909324E+01
  0.1879394E+02  0.6366993E+02  0.2385683E+01  0.5680553E+02  0.2203914E+01  0.1960964E+03  0.2385697E+01
  0.1899495E+02  0.5499816E+02  0.2046196E+01  0.5534249E+02  0.2106287E+01  0.1693577E+03  0.2046199E+01
  0.1919596E+02  0.5227949E+02  0.1909679E+01  0.5393480E+02  0.2007369E+01  0.1609797E+03  0.1909680E+01
  0.1939697E+02  0.5057702E+02  0.1797217E+01  0.5258358E+02  0.1906868E+01  0.1557346E+03  0.1797218E+01
  0.1959798E+02  0.4916302E+02  0.1691207E+01  0.5124367E+02  0.1805022E+01  0.1513790E+03  0.1691208E+01
  0.1979899E+02  0.4792841E+02  0.1587437E+01  0.4991133E+02  0.1702358E+01  0.1475763E+03  0.1587437E+01
  0.2000000E+02  0.4681681E+02  0.1484349E+01  0.4859752E+02  0.1598166E+01  0.1441528E+03  0.1484350E+01
