VARIABLES="Period (s)" "|Fx| (N/m)" "|Fy| (N/m)" "|Fz| (N/m)" "|Cx| (N)" "|Cy| (N)" "|Cz| (N)" "ang(Fx) (°)" "ang(Fy) (°)" "ang(Fz) (°)" "ang(Cx) (°)" "ang(Cy) (°)" "ang(Cz) (°)"
Zone t="Corps  1"
Zone t="Diffraction force - beta =   0.000 deg",I=   100,F=POINT
 0.1000  0.271031E-01  0.512819E+03  0.834718E-01 -0.396151E-02 -0.900000E+02 -0.532755E-02
 0.3010  0.244941E+00  0.512298E+03  0.754369E+00  0.109283E-02 -0.899999E+02 -0.191245E-03
 0.5020  0.680933E+00  0.511250E+03  0.209713E+01 -0.204906E-04 -0.899990E+02 -0.450792E-03
 0.7030  0.133298E+01  0.509661E+03  0.410530E+01  0.204906E-04 -0.899962E+02  0.109283E-03
 0.9040  0.220133E+01  0.507525E+03  0.677961E+01 -0.341509E-04 -0.899898E+02 -0.751321E-04
 1.1051  0.328352E+01  0.504836E+03  0.101125E+02 -0.478113E-04 -0.899773E+02 -0.887925E-04
 1.3061  0.457875E+01  0.501588E+03  0.141015E+02 -0.204906E-03 -0.899560E+02 -0.245887E-03
 1.5071  0.608270E+01  0.497774E+03  0.187334E+02 -0.437132E-03 -0.899226E+02 -0.519094E-03
 1.7081  0.778711E+01  0.493403E+03  0.239826E+02 -0.969887E-03 -0.898735E+02 -0.881094E-03
 1.9091  0.970127E+01  0.488479E+03  0.298777E+02 -0.185781E-02 -0.898046E+02 -0.185781E-02
 2.1101  0.118038E+02  0.483018E+03  0.363530E+02 -0.327849E-02 -0.897116E+02 -0.327849E-02
 2.3111  0.141039E+02  0.477035E+03  0.434369E+02 -0.562125E-02 -0.895901E+02 -0.562125E-02
 2.5121  0.165967E+02  0.470566E+03  0.511140E+02 -0.909781E-02 -0.894357E+02 -0.908415E-02
 2.7131  0.192527E+02  0.463619E+03  0.592937E+02 -0.141385E-01 -0.892436E+02 -0.141385E-01
 2.9141  0.220999E+02  0.456236E+03  0.680621E+02 -0.212146E-01 -0.890095E+02 -0.212146E-01
 3.1152  0.251221E+02  0.448475E+03  0.773699E+02 -0.309066E-01 -0.887289E+02 -0.309066E-01
 3.3162  0.282816E+02  0.440341E+03  0.871002E+02 -0.438225E-01 -0.883976E+02 -0.438088E-01
 3.5172  0.315964E+02  0.431890E+03  0.973088E+02 -0.606316E-01 -0.880117E+02 -0.606384E-01
 3.7182  0.350739E+02  0.423170E+03  0.108018E+03 -0.820716E-01 -0.875675E+02 -0.820716E-01
 3.9192  0.386847E+02  0.414245E+03  0.119138E+03 -0.108914E+00 -0.870614E+02 -0.108907E+00
 4.1202  0.423936E+02  0.405125E+03  0.130560E+03 -0.141945E+00 -0.864909E+02 -0.141938E+00
 4.3212  0.462113E+02  0.395840E+03  0.142317E+03 -0.181840E+00 -0.858532E+02 -0.181833E+00
 4.5222  0.501410E+02  0.386473E+03  0.154419E+03 -0.229146E+00 -0.851456E+02 -0.229153E+00
 4.7232  0.541656E+02  0.377063E+03  0.166813E+03 -0.284457E+00 -0.843660E+02 -0.284450E+00
 4.9242  0.582549E+02  0.367626E+03  0.179407E+03 -0.348162E+00 -0.835133E+02 -0.348155E+00
 5.1253  0.623695E+02  0.358200E+03  0.192078E+03 -0.420528E+00 -0.825862E+02 -0.420514E+00
 5.3263  0.665063E+02  0.348805E+03  0.204817E+03 -0.501083E+00 -0.815838E+02 -0.501076E+00
 5.5273  0.706632E+02  0.339471E+03  0.217619E+03 -0.588988E+00 -0.805049E+02 -0.588995E+00
 5.7283  0.748209E+02  0.330233E+03  0.230423E+03 -0.683121E+00 -0.793487E+02 -0.683115E+00
 5.9293  0.789462E+02  0.321138E+03  0.243126E+03 -0.782009E+00 -0.781142E+02 -0.782009E+00
 6.1303  0.830067E+02  0.312191E+03  0.255630E+03 -0.883710E+00 -0.768020E+02 -0.883717E+00
 6.3313  0.869639E+02  0.303386E+03  0.267816E+03 -0.985726E+00 -0.754130E+02 -0.985733E+00
 6.5323  0.907904E+02  0.294718E+03  0.279599E+03 -0.108449E+01 -0.739487E+02 -0.108449E+01
 6.7333  0.944732E+02  0.286220E+03  0.290941E+03 -0.117477E+01 -0.724081E+02 -0.117476E+01
 6.9343  0.979865E+02  0.277910E+03  0.301759E+03 -0.125152E+01 -0.707903E+02 -0.125152E+01
 7.1354  0.101307E+03  0.269786E+03  0.311983E+03 -0.130881E+01 -0.690965E+02 -0.130881E+01
 7.3364  0.104402E+03  0.261854E+03  0.321515E+03 -0.134067E+01 -0.673273E+02 -0.134068E+01
 7.5374  0.107252E+03  0.254108E+03  0.330289E+03 -0.133969E+01 -0.654841E+02 -0.133970E+01
 7.7384  0.109835E+03  0.246573E+03  0.338243E+03 -0.129778E+01 -0.635660E+02 -0.129778E+01
 7.9394  0.112134E+03  0.239252E+03  0.345320E+03 -0.120702E+01 -0.615724E+02 -0.120702E+01
 8.1404  0.114133E+03  0.232136E+03  0.351477E+03 -0.105949E+01 -0.595052E+02 -0.105949E+01
 8.3414  0.115826E+03  0.225230E+03  0.356688E+03 -0.846691E+00 -0.573648E+02 -0.846691E+00
 8.5424  0.117208E+03  0.218513E+03  0.360944E+03 -0.560308E+00 -0.551537E+02 -0.560308E+00
 8.7434  0.118278E+03  0.211989E+03  0.364239E+03 -0.192550E+00 -0.528709E+02 -0.192550E+00
 8.9444  0.119042E+03  0.205671E+03  0.366590E+03  0.263966E+00 -0.505164E+02  0.263966E+00
 9.1455  0.119508E+03  0.199556E+03  0.368023E+03  0.816317E+00 -0.480894E+02  0.816310E+00
 9.3465  0.119688E+03  0.193627E+03  0.368575E+03  0.147059E+01 -0.455922E+02  0.147059E+01
 9.5475  0.119596E+03  0.187882E+03  0.368293E+03  0.223226E+01 -0.430247E+02  0.223226E+01
 9.7485  0.119253E+03  0.182314E+03  0.367234E+03  0.310610E+01 -0.403881E+02  0.310609E+01
 9.9495  0.118675E+03  0.176909E+03  0.365453E+03  0.409578E+01 -0.376837E+02  0.409578E+01
10.1505  0.117885E+03  0.171675E+03  0.363017E+03  0.520467E+01 -0.349095E+02  0.520467E+01
10.3515  0.116902E+03  0.166613E+03  0.359991E+03  0.643484E+01 -0.320664E+02  0.643484E+01
10.5525  0.115750E+03  0.161724E+03  0.356443E+03  0.778851E+01 -0.291530E+02  0.778849E+01
10.7535  0.114447E+03  0.156982E+03  0.352428E+03  0.926575E+01 -0.261724E+02  0.926576E+01
10.9545  0.113012E+03  0.152381E+03  0.348008E+03  0.108669E+02 -0.231246E+02  0.108669E+02
11.1556  0.111469E+03  0.147935E+03  0.343254E+03  0.125926E+02 -0.200078E+02  0.125926E+02
11.3566  0.109828E+03  0.143610E+03  0.338202E+03  0.144408E+02 -0.168270E+02  0.144408E+02
11.5576  0.108112E+03  0.139420E+03  0.332916E+03  0.164118E+02 -0.135773E+02  0.164118E+02
11.7586  0.106334E+03  0.135360E+03  0.327439E+03  0.185040E+02 -0.102587E+02  0.185040E+02
11.9596  0.104506E+03  0.131424E+03  0.321809E+03  0.207154E+02 -0.687286E+01  0.207154E+02
12.1606  0.102646E+03  0.127623E+03  0.316081E+03  0.230456E+02 -0.341510E+01  0.230456E+02
12.3616  0.100757E+03  0.123928E+03  0.310264E+03  0.254914E+02  0.110895E+00  0.254914E+02
12.5626  0.988480E+02  0.120319E+03  0.304383E+03  0.280502E+02  0.370269E+01  0.280502E+02
12.7636  0.969378E+02  0.116830E+03  0.298500E+03  0.307220E+02  0.737029E+01  0.307220E+02
12.9647  0.950260E+02  0.113431E+03  0.292612E+03  0.335025E+02  0.111036E+02  0.335025E+02
13.1657  0.931148E+02  0.110099E+03  0.286727E+03  0.363894E+02  0.149028E+02  0.363893E+02
13.3667  0.912164E+02  0.106847E+03  0.280880E+03  0.393829E+02  0.187771E+02  0.393829E+02
13.5677  0.893331E+02  0.103661E+03  0.275080E+03  0.424806E+02  0.227296E+02  0.424805E+02
13.7687  0.874680E+02  0.100530E+03  0.269336E+03  0.456789E+02  0.267549E+02  0.456788E+02
13.9697  0.856349E+02  0.974683E+02  0.263690E+03  0.489791E+02  0.308684E+02  0.489790E+02
14.1707  0.838272E+02  0.944246E+02  0.258123E+03  0.523786E+02  0.350852E+02  0.523786E+02
14.3717  0.820403E+02  0.913354E+02  0.252620E+03  0.558738E+02  0.393933E+02  0.558737E+02
14.5727  0.802786E+02  0.881483E+02  0.247195E+03  0.594642E+02  0.438201E+02  0.594641E+02
14.7737  0.785582E+02  0.848694E+02  0.241896E+03  0.631488E+02  0.484171E+02  0.631487E+02
14.9747  0.768626E+02  0.812576E+02  0.236675E+03  0.669238E+02  0.531917E+02  0.669236E+02
15.1758  0.751880E+02  0.769222E+02  0.231517E+03  0.707866E+02  0.582516E+02  0.707866E+02
15.3768  0.735467E+02  0.709946E+02  0.226463E+03  0.747414E+02  0.639460E+02  0.747413E+02
15.5778  0.719378E+02  0.598551E+02  0.221507E+03  0.787876E+02  0.714037E+02  0.787875E+02
15.7788  0.703615E+02  0.968415E+01  0.216654E+03  0.829219E+02  0.826546E+02  0.829218E+02
15.9798  0.688218E+02  0.124865E+03  0.211912E+03  0.871449E+02  0.542567E+02  0.871448E+02
16.1808  0.673205E+02  0.942204E+02  0.207288E+03 -0.268541E+03  0.710019E+02 -0.268541E+03
16.3818  0.658465E+02  0.851067E+02  0.202748E+03 -0.264134E+03  0.784042E+02 -0.264135E+03
16.5828  0.643875E+02  0.801294E+02  0.198255E+03 -0.259640E+03  0.843826E+02 -0.259640E+03
16.7838  0.629399E+02  0.766061E+02  0.193797E+03 -0.255055E+03  0.899050E+02 -0.255055E+03
16.9848  0.615253E+02  0.736532E+02  0.189441E+03 -0.250370E+03 -0.264761E+03 -0.250370E+03
17.1859  0.601181E+02  0.711404E+02  0.185107E+03 -0.245584E+03 -0.259458E+03 -0.245584E+03
17.3869  0.587004E+02  0.689237E+02  0.180741E+03 -0.240694E+03 -0.254170E+03 -0.240694E+03
17.5879  0.572484E+02  0.668966E+02  0.176269E+03 -0.235669E+03 -0.248862E+03 -0.235669E+03
17.7889  0.557585E+02  0.649806E+02  0.171680E+03 -0.230468E+03 -0.243506E+03 -0.230468E+03
17.9899  0.541298E+02  0.631882E+02  0.166663E+03 -0.225024E+03 -0.238109E+03 -0.225024E+03
18.1909  0.522024E+02  0.614837E+02  0.160726E+03 -0.219140E+03 -0.232709E+03 -0.219140E+03
18.3919  0.493091E+02  0.598742E+02  0.151812E+03 -0.212193E+03 -0.227277E+03 -0.212193E+03
18.5929  0.404053E+02  0.583333E+02  0.124374E+03 -0.199396E+03 -0.221794E+03 -0.199396E+03
18.7939  0.636699E+02  0.568055E+02  0.196096E+03 -0.226690E+03 -0.216275E+03 -0.226690E+03
18.9949  0.549982E+02  0.553425E+02  0.169358E+03 -0.207238E+03 -0.210681E+03 -0.207239E+03
19.1960  0.522795E+02  0.539348E+02  0.160980E+03 -0.199417E+03 -0.205014E+03 -0.199417E+03
19.3970  0.505770E+02  0.525836E+02  0.155735E+03 -0.192973E+03 -0.199255E+03 -0.192973E+03
19.5980  0.491630E+02  0.512437E+02  0.151379E+03 -0.186899E+03 -0.193420E+03 -0.186899E+03
19.7990  0.479284E+02  0.499113E+02  0.147576E+03 -0.180953E+03 -0.187538E+03 -0.180953E+03
20.0000  0.468168E+02  0.485975E+02  0.144153E+03 -0.175047E+03 -0.181568E+03 -0.175047E+03
