VARIABLES="w (rad/s)"
"abs(F   1   1)" "angle(F   1   1)"
"abs(F   1   2)" "angle(F   1   2)"
"abs(F   1   3)" "angle(F   1   3)"
Zone t="FKforce - beta =   0.000",I=   100,F=POINT
  0.1000000E+00  0.2024451E-01 -0.1570704E+01  0.5128632E+03 -0.2908322E-12  0.6234826E-01 -0.1570672E+01
  0.3010101E+00  0.1833925E+00 -0.1570822E+01  0.5126998E+03 -0.1135317E-12  0.5648058E+00 -0.1570792E+01
  0.5020202E+00  0.5099019E+00 -0.1570796E+01  0.5123726E+03 -0.1567738E-10  0.1570374E+01 -0.1570786E+01
  0.7030303E+00  0.9993754E+00 -0.1570797E+01  0.5118805E+03 -0.2137812E-10  0.3077836E+01 -0.1570799E+01
  0.9040404E+00  0.1651217E+01 -0.1570796E+01  0.5112237E+03  0.6922656E-10  0.5085344E+01 -0.1570795E+01
  0.1105051E+01  0.2464618E+01 -0.1570797E+01  0.5104021E+03 -0.1824684E-11  0.7590425E+01 -0.1570796E+01
  0.1306061E+01  0.3438576E+01 -0.1570796E+01  0.5094130E+03 -0.9049724E-10  0.1058996E+02 -0.1570795E+01
  0.1507071E+01  0.4571865E+01 -0.1570797E+01  0.5082557E+03 -0.1154406E-09  0.1408019E+02 -0.1570795E+01
  0.1708081E+01  0.5863028E+01 -0.1570796E+01  0.5069281E+03 -0.2939502E-10  0.1805666E+02 -0.1570798E+01
  0.1909091E+01  0.7310427E+01 -0.1570796E+01  0.5054291E+03  0.2708677E-09  0.2251425E+02 -0.1570796E+01
  0.2110101E+01  0.8912125E+01 -0.1570797E+01  0.5037566E+03 -0.2255481E-09  0.2744705E+02 -0.1570797E+01
  0.2311111E+01  0.1066601E+02 -0.1570796E+01  0.5019087E+03  0.4453349E-09  0.3284854E+02 -0.1570796E+01
  0.2512121E+01  0.1256968E+02 -0.1570796E+01  0.4998834E+03 -0.3465328E-09  0.3871132E+02 -0.1570796E+01
  0.2713131E+01  0.1462048E+02 -0.1570796E+01  0.4976778E+03 -0.5090035E-09  0.4502717E+02 -0.1570796E+01
  0.2914141E+01  0.1681548E+02 -0.1570796E+01  0.4952888E+03 -0.4212012E-09  0.5178711E+02 -0.1570796E+01
  0.3115151E+01  0.1915150E+02 -0.1570796E+01  0.4927149E+03  0.7031490E-09  0.5898136E+02 -0.1570796E+01
  0.3316161E+01  0.2162499E+02 -0.1570796E+01  0.4899532E+03  0.8515763E-09  0.6659892E+02 -0.1570796E+01
  0.3517171E+01  0.2423221E+02 -0.1570796E+01  0.4870000E+03 -0.3289271E-09  0.7462842E+02 -0.1570796E+01
  0.3718182E+01  0.2696902E+02 -0.1570796E+01  0.4838532E+03  0.1185679E-08  0.8305679E+02 -0.1570796E+01
  0.3919192E+01  0.2983097E+02 -0.1570796E+01  0.4805088E+03 -0.9148308E-09  0.9187069E+02 -0.1570796E+01
  0.4120202E+01  0.3281326E+02 -0.1570796E+01  0.4769647E+03  0.2030707E-09  0.1010549E+03 -0.1570796E+01
  0.4321212E+01  0.3591076E+02 -0.1570796E+01  0.4732169E+03 -0.1188712E-08  0.1105941E+03 -0.1570796E+01
  0.4522222E+01  0.3911788E+02 -0.1570796E+01  0.4692629E+03  0.7700441E-09  0.1204710E+03 -0.1570796E+01
  0.4723232E+01  0.4242887E+02 -0.1570796E+01  0.4650998E+03  0.9771782E-09  0.1306674E+03 -0.1570796E+01
  0.4924242E+01  0.4583737E+02 -0.1570796E+01  0.4607243E+03 -0.2910861E-09  0.1411641E+03 -0.1570796E+01
  0.5125252E+01  0.4933667E+02 -0.1570796E+01  0.4561329E+03 -0.2139785E-08  0.1519406E+03 -0.1570796E+01
  0.5326262E+01  0.5291977E+02 -0.1570796E+01  0.4513239E+03  0.1815911E-09  0.1629749E+03 -0.1570796E+01
  0.5527273E+01  0.5657893E+02 -0.1570796E+01  0.4462940E+03 -0.2353901E-08  0.1742439E+03 -0.1570796E+01
  0.5728283E+01  0.6030650E+02 -0.1570796E+01  0.4410410E+03 -0.3784070E-08  0.1857231E+03 -0.1570796E+01
  0.5929293E+01  0.6409393E+02 -0.1570796E+01  0.4355620E+03  0.2617168E-08  0.1973865E+03 -0.1570796E+01
  0.6130303E+01  0.6793239E+02 -0.1570796E+01  0.4298558E+03  0.1958600E-08  0.2092070E+03 -0.1570796E+01
  0.6331313E+01  0.7181259E+02 -0.1570796E+01  0.4239196E+03  0.1757545E-09  0.2211563E+03 -0.1570796E+01
  0.6532323E+01  0.7572493E+02 -0.1570796E+01  0.4177533E+03 -0.3459967E-08  0.2332041E+03 -0.1570796E+01
  0.6733334E+01  0.7965903E+02 -0.1570796E+01  0.4113545E+03  0.3658687E-08  0.2453196E+03 -0.1570796E+01
  0.6934343E+01  0.8360442E+02 -0.1570796E+01  0.4047233E+03  0.7731810E-09  0.2574689E+03 -0.1570796E+01
  0.7135354E+01  0.8755009E+02 -0.1570796E+01  0.3978594E+03  0.5730360E-08  0.2696191E+03 -0.1570796E+01
  0.7336363E+01  0.9148433E+02 -0.1570796E+01  0.3907622E+03 -0.3813358E-09  0.2817348E+03 -0.1570796E+01
  0.7537374E+01  0.9539532E+02 -0.1570796E+01  0.3834329E+03 -0.3186725E-08  0.2937787E+03 -0.1570796E+01
  0.7738384E+01  0.9927088E+02 -0.1570796E+01  0.3758734E+03 -0.4836580E-08  0.3057129E+03 -0.1570796E+01
  0.7939394E+01  0.1030982E+03 -0.1570796E+01  0.3680841E+03 -0.1003979E-07  0.3174987E+03 -0.1570796E+01
  0.8140405E+01  0.1068639E+03 -0.1570796E+01  0.3600681E+03 -0.4635039E-08  0.3290956E+03 -0.1570796E+01
  0.8341414E+01  0.1105551E+03 -0.1570796E+01  0.3518288E+03 -0.4828293E-08  0.3404615E+03 -0.1570796E+01
  0.8542424E+01  0.1141576E+03 -0.1570796E+01  0.3433699E+03  0.4773650E-08  0.3515550E+03 -0.1570796E+01
  0.8743435E+01  0.1176576E+03 -0.1570796E+01  0.3346956E+03  0.3962416E-08  0.3623329E+03 -0.1570796E+01
  0.8944445E+01  0.1210408E+03 -0.1570796E+01  0.3258117E+03  0.5716937E-08  0.3727507E+03 -0.1570796E+01
  0.9145455E+01  0.1242926E+03 -0.1570796E+01  0.3167246E+03  0.5645723E-09  0.3827643E+03 -0.1570796E+01
  0.9346465E+01  0.1273985E+03 -0.1570796E+01  0.3074406E+03 -0.5864679E-08  0.3923280E+03 -0.1570796E+01
  0.9547475E+01  0.1303436E+03 -0.1570796E+01  0.2979682E+03 -0.4450822E-08  0.4013973E+03 -0.1570796E+01
  0.9748485E+01  0.1331136E+03 -0.1570796E+01  0.2883162E+03 -0.5168340E-10  0.4099270E+03 -0.1570796E+01
  0.9949495E+01  0.1356934E+03 -0.1570796E+01  0.2784940E+03  0.8025933E-09  0.4178706E+03 -0.1570796E+01
  0.1015051E+02  0.1380685E+03 -0.1570796E+01  0.2685125E+03  0.6603931E-08  0.4251842E+03 -0.1570796E+01
  0.1035151E+02  0.1402244E+03 -0.1570796E+01  0.2583842E+03 -0.6920467E-08  0.4318224E+03 -0.1570796E+01
  0.1055252E+02  0.1421464E+03 -0.1570796E+01  0.2481209E+03  0.1026959E-07  0.4377413E+03 -0.1570796E+01
  0.1075354E+02  0.1438215E+03 -0.1570796E+01  0.2377367E+03  0.1404015E-07  0.4428988E+03 -0.1570796E+01
  0.1095455E+02  0.1452355E+03 -0.1570796E+01  0.2272466E+03 -0.1534400E-07  0.4472533E+03 -0.1570796E+01
  0.1115556E+02  0.1463758E+03 -0.1570796E+01  0.2166660E+03  0.5501984E-09  0.4507643E+03 -0.1570796E+01
  0.1135657E+02  0.1472300E+03 -0.1570796E+01  0.2060124E+03 -0.1005406E-07  0.4533950E+03 -0.1570796E+01
  0.1155758E+02  0.1477861E+03 -0.1570796E+01  0.1953031E+03 -0.1342838E-07  0.4551075E+03 -0.1570796E+01
  0.1175859E+02  0.1480338E+03 -0.1570796E+01  0.1845568E+03 -0.4359972E-08  0.4558695E+03 -0.1570796E+01
  0.1195960E+02  0.1479627E+03 -0.1570796E+01  0.1737936E+03 -0.1234664E-07  0.4556510E+03 -0.1570796E+01
  0.1216061E+02  0.1475640E+03 -0.1570796E+01  0.1630334E+03 -0.2284986E-07  0.4544233E+03 -0.1570796E+01
  0.1236162E+02  0.1468299E+03 -0.1570796E+01  0.1522983E+03 -0.1428492E-07  0.4521626E+03 -0.1570796E+01
  0.1256263E+02  0.1457539E+03 -0.1570796E+01  0.1416104E+03 -0.3156795E-08  0.4488497E+03 -0.1570796E+01
  0.1276364E+02  0.1443307E+03 -0.1570796E+01  0.1309923E+03  0.3116915E-07  0.4444673E+03 -0.1570796E+01
  0.1296465E+02  0.1425565E+03 -0.1570796E+01  0.1204682E+03  0.2424397E-07  0.4390045E+03 -0.1570796E+01
  0.1316566E+02  0.1404292E+03 -0.1570796E+01  0.1100618E+03  0.3587810E-07  0.4324546E+03 -0.1570796E+01
  0.1336667E+02  0.1379484E+03 -0.1570796E+01  0.9979790E+02  0.2986267E-08  0.4248154E+03 -0.1570796E+01
  0.1356768E+02  0.1351148E+03 -0.1570796E+01  0.8970167E+02 -0.2375503E-07  0.4160909E+03 -0.1570796E+01
  0.1376869E+02  0.1319318E+03 -0.1570796E+01  0.7979819E+02 -0.2987769E-08  0.4062903E+03 -0.1570796E+01
  0.1396970E+02  0.1284045E+03 -0.1570796E+01  0.7011276E+02 -0.7842407E-07  0.3954293E+03 -0.1570796E+01
  0.1417071E+02  0.1245394E+03 -0.1570796E+01  0.6067075E+02 -0.3708666E-07  0.3835282E+03 -0.1570796E+01
  0.1437172E+02  0.1203460E+03 -0.1570796E+01  0.5149758E+02  0.3182922E-08  0.3706165E+03 -0.1570796E+01
  0.1457273E+02  0.1158352E+03 -0.1570796E+01  0.4261803E+02  0.1356621E-06  0.3567277E+03 -0.1570796E+01
  0.1477374E+02  0.1110204E+03 -0.1570796E+01  0.3405650E+02  0.5950576E-07  0.3419019E+03 -0.1570796E+01
  0.1497475E+02  0.1059168E+03 -0.1570796E+01  0.2583679E+02 -0.1268832E-07  0.3261883E+03 -0.1570796E+01
  0.1517576E+02  0.1005424E+03 -0.1570796E+01  0.1798190E+02  0.1251300E-06  0.3096396E+03 -0.1570796E+01
  0.1537677E+02  0.9491676E+02 -0.1570796E+01  0.1051385E+02  0.4251865E-06  0.2923180E+03 -0.1570796E+01
  0.1557778E+02  0.8906185E+02 -0.1570796E+01  0.3453414E+01 -0.3538224E-06  0.2742903E+03 -0.1570796E+01
  0.1577879E+02  0.8300188E+02 -0.1570796E+01  0.3179842E+01 -0.3141593E+01  0.2556314E+03 -0.1570796E+01
  0.1597980E+02  0.7676281E+02 -0.1570796E+01  0.9368139E+01 -0.3141593E+01  0.2364209E+03 -0.1570796E+01
  0.1618081E+02  0.7037247E+02 -0.1570796E+01  0.1509511E+02 -0.3141593E+01  0.2167450E+03 -0.1570796E+01
  0.1638182E+02  0.6386096E+02 -0.1570796E+01  0.2034657E+02  0.3141593E+01  0.1966957E+03 -0.1570796E+01
  0.1658283E+02  0.5725961E+02 -0.1570796E+01  0.2511021E+02 -0.3141593E+01  0.1763697E+03 -0.1570796E+01
  0.1678384E+02  0.5060143E+02 -0.1570796E+01  0.2937613E+02 -0.3141593E+01  0.1558690E+03 -0.1570796E+01
  0.1698485E+02  0.4392085E+02 -0.1570796E+01  0.3313670E+02  0.3141593E+01  0.1352989E+03 -0.1570796E+01
  0.1718586E+02  0.3725307E+02 -0.1570796E+01  0.3638703E+02  0.3141593E+01  0.1147685E+03 -0.1570796E+01
  0.1738687E+02  0.3063462E+02 -0.1570796E+01  0.3912486E+02  0.3141593E+01  0.9438993E+02 -0.1570796E+01
  0.1758788E+02  0.2410239E+02 -0.1570796E+01  0.4135061E+02  0.3141593E+01  0.7427663E+02 -0.1570796E+01
  0.1778889E+02  0.1769367E+02 -0.1570796E+01  0.4306784E+02  0.3141593E+01  0.5454368E+02 -0.1570796E+01
  0.1798990E+02  0.1144579E+02 -0.1570796E+01  0.4428306E+02  0.3141593E+01  0.3530592E+02 -0.1570796E+01
  0.1819091E+02  0.5395770E+01 -0.1570797E+01  0.4500581E+02  0.3141593E+01  0.1667726E+02 -0.1570797E+01
  0.1839192E+02  0.4198673E+00  0.1570803E+01  0.4524877E+02  0.3141593E+01  0.1229806E+01  0.1570797E+01
  0.1859293E+02  0.5965611E+01  0.1570797E+01  0.4502764E+02 -0.3141593E+01  0.1830596E+02  0.1570796E+01
  0.1879394E+02  0.1120718E+02  0.1570796E+01  0.4436138E+02  0.3141593E+01  0.3444570E+02  0.1570796E+01
  0.1899495E+02  0.1611217E+02  0.1570796E+01  0.4327188E+02 -0.3141593E+01  0.4954914E+02  0.1570796E+01
  0.1919596E+02  0.2064994E+02  0.1570796E+01  0.4178395E+02  0.3141593E+01  0.6352205E+02  0.1570796E+01
  0.1939697E+02  0.2479246E+02  0.1570796E+01  0.3992538E+02  0.3141593E+01  0.7627798E+02  0.1570796E+01
  0.1959798E+02  0.2851429E+02  0.1570796E+01  0.3772642E+02  0.3141593E+01  0.8773882E+02  0.1570796E+01
  0.1979899E+02  0.3179322E+02  0.1570796E+01  0.3522002E+02  0.3141593E+01  0.9783615E+02  0.1570796E+01
  0.2000000E+02  0.3461031E+02  0.1570796E+01  0.3244134E+02  0.3141593E+01  0.1065116E+03  0.1570796E+01
