 VARIABLES="Time (s)"
"AddedMass    1" "IRF    1"
"AddedMass    2" "IRF    2"
"AddedMass    3" "IRF    3"
Zone t="DoF    1",I=   800,F=POINT
  0.0000000E+00  0.4770237E+00  0.3613115E+02 -0.2852484E-07 -0.4300546E-05  0.1469268E+01  0.1112572E+03
  0.1000000E-01  0.4770237E+00  0.3574557E+02 -0.2852484E-07 -0.4247612E-05  0.1469268E+01  0.1100699E+03
  0.2000000E-01  0.4770237E+00  0.3459877E+02 -0.2852484E-07 -0.4090739E-05  0.1469268E+01  0.1065387E+03
  0.3000000E-01  0.4770237E+00  0.3272024E+02 -0.2852484E-07 -0.3835634E-05  0.1469268E+01  0.1007543E+03
  0.4000000E-01  0.4770237E+00  0.3015816E+02 -0.2852484E-07 -0.3491573E-05  0.1469268E+01  0.9286514E+02
  0.5000000E-01  0.4770237E+00  0.2697804E+02 -0.2852484E-07 -0.3071050E-05  0.1469268E+01  0.8307289E+02
  0.6000000E-01  0.4770237E+00  0.2326083E+02 -0.2852484E-07 -0.2589294E-05  0.1469268E+01  0.7162678E+02
  0.7000000E-01  0.4770237E+00  0.1910056E+02 -0.2852484E-07 -0.2063702E-05  0.1469268E+01  0.5881645E+02
  0.8000000E-01  0.4770237E+00  0.1460172E+02 -0.2852484E-07 -0.1513174E-05  0.1469268E+01  0.4496355E+02
  0.9000000E-01  0.4770237E+00  0.9876208E+01 -0.2852484E-07 -0.9573994E-06  0.1469268E+01  0.3041268E+02
  0.9999999E-01  0.4770237E+00  0.5040244E+01 -0.2852484E-07 -0.4161098E-06  0.1469268E+01  0.1552169E+02
  0.1100000E+00  0.4770237E+00  0.2110630E+00 -0.2852484E-07  0.9167262E-07  0.1469268E+01  0.6515568E+00
  0.1200000E+00  0.4770237E+00 -0.4496298E+01 -0.2852484E-07  0.5483470E-06  0.1469268E+01 -0.1384349E+02
  0.1300000E+00  0.4770237E+00 -0.8972174E+01 -0.2852484E-07  0.9384170E-06  0.1469268E+01 -0.2762577E+02
  0.1400000E+00  0.4770237E+00 -0.1311521E+02 -0.2852484E-07  0.1249066E-05  0.1469268E+01 -0.4038317E+02
  0.1500000E+00  0.4770237E+00 -0.1683499E+02 -0.2852484E-07  0.1470650E-05  0.1469268E+01 -0.5183733E+02
  0.1600000E+00  0.4770237E+00 -0.2005442E+02 -0.2852484E-07  0.1597062E-05  0.1469268E+01 -0.6175080E+02
  0.1700000E+00  0.4770237E+00 -0.2271150E+02 -0.2852484E-07  0.1625964E-05  0.1469268E+01 -0.6993273E+02
  0.1800000E+00  0.4770237E+00 -0.2476081E+02 -0.2852484E-07  0.1558874E-05  0.1469268E+01 -0.7624321E+02
  0.1900000E+00  0.4770237E+00 -0.2617433E+02 -0.2852484E-07  0.1401107E-05  0.1469268E+01 -0.8059600E+02
  0.2000000E+00  0.4770237E+00 -0.2694183E+02 -0.2852484E-07  0.1161571E-05  0.1469268E+01 -0.8295956E+02
  0.2100000E+00  0.4770237E+00 -0.2707067E+02 -0.2852484E-07  0.8524192E-06  0.1469268E+01 -0.8335658E+02
  0.2200000E+00  0.4770237E+00 -0.2658511E+02 -0.2852484E-07  0.4885895E-06  0.1469268E+01 -0.8186175E+02
  0.2300000E+00  0.4770237E+00 -0.2552511E+02 -0.2852484E-07  0.8722262E-07  0.1469268E+01 -0.7859808E+02
  0.2400000E+00  0.4770237E+00 -0.2394472E+02 -0.2852484E-07 -0.3330025E-06  0.1469268E+01 -0.7373206E+02
  0.2500000E+00  0.4770237E+00 -0.2191004E+02 -0.2852484E-07 -0.7525917E-06  0.1469268E+01 -0.6746717E+02
  0.2600000E+00  0.4770237E+00 -0.1949698E+02 -0.2852484E-07 -0.1151989E-05  0.1469268E+01 -0.6003712E+02
  0.2700000E+00  0.4770237E+00 -0.1678856E+02 -0.2852484E-07 -0.1512351E-05  0.1469268E+01 -0.5169762E+02
  0.2800000E+00  0.4770237E+00 -0.1387239E+02 -0.2852484E-07 -0.1816282E-05  0.1469268E+01 -0.4271835E+02
  0.2900000E+00  0.4770237E+00 -0.1083780E+02 -0.2852484E-07 -0.2048527E-05  0.1469268E+01 -0.3337446E+02
  0.3000000E+00  0.4770237E+00 -0.7773160E+01 -0.2852484E-07 -0.2196576E-05  0.1469268E+01 -0.2393799E+02
  0.3100000E+00  0.4770237E+00 -0.4763265E+01 -0.2852484E-07 -0.2251190E-05  0.1469268E+01 -0.1467005E+02
  0.3200000E+00  0.4770237E+00 -0.1886940E+01 -0.2852484E-07 -0.2206772E-05  0.1469268E+01 -0.5813376E+01
  0.3300000E+00  0.4770237E+00  0.7851377E+00 -0.2852484E-07 -0.2061631E-05  0.1469268E+01  0.2414433E+01
  0.3400000E+00  0.4770237E+00  0.3192219E+01 -0.2852484E-07 -0.1818082E-05  0.1469268E+01  0.9826316E+01
  0.3500000E+00  0.4770237E+00  0.5284920E+01 -0.2852484E-07 -0.1482398E-05  0.1469268E+01  0.1627020E+02
  0.3600000E+00  0.4770237E+00  0.7026269E+01 -0.2852484E-07 -0.1064618E-05  0.1469268E+01  0.2163226E+02
  0.3700000E+00  0.4770237E+00  0.8392280E+01 -0.2852484E-07 -0.5781935E-06  0.1469268E+01  0.2583860E+02
  0.3800000E+00  0.4770237E+00  0.9372077E+01 -0.2852484E-07 -0.3952141E-07  0.1469268E+01  0.2885576E+02
  0.3900000E+00  0.4770237E+00  0.9967656E+01 -0.2852484E-07  0.5326531E-06  0.1469268E+01  0.3068988E+02
  0.4000000E+00  0.4770237E+00  0.1019316E+02 -0.2852484E-07  0.1117920E-05  0.1469268E+01  0.3138449E+02
  0.4100000E+00  0.4770237E+00  0.1007381E+02 -0.2852484E-07  0.1694962E-05  0.1469268E+01  0.3101727E+02
  0.4200000E+00  0.4770237E+00  0.9644532E+01 -0.2852484E-07  0.2242345E-05  0.1469268E+01  0.2969576E+02
  0.4300000E+00  0.4770237E+00  0.8948296E+01 -0.2852484E-07  0.2739333E-05  0.1469268E+01  0.2755224E+02
  0.4400000E+00  0.4770237E+00  0.8034237E+01 -0.2852484E-07  0.3166689E-05  0.1469268E+01  0.2473801E+02
  0.4500000E+00  0.4770237E+00  0.6955676E+01 -0.2852484E-07  0.3507383E-05  0.1469268E+01  0.2141727E+02
  0.4600000E+00  0.4770237E+00  0.5768072E+01 -0.2852484E-07  0.3747306E-05  0.1469268E+01  0.1776075E+02
  0.4700000E+00  0.4770237E+00  0.4526931E+01 -0.2852484E-07  0.3875794E-05  0.1469268E+01  0.1393940E+02
  0.4800000E+00  0.4770237E+00  0.3285932E+01 -0.2852484E-07  0.3886095E-05  0.1469268E+01  0.1011846E+02
  0.4900000E+00  0.4770237E+00  0.2095012E+01 -0.2852484E-07  0.3775667E-05  0.1469268E+01  0.6451737E+01
  0.5000000E+00  0.4770237E+00  0.9988568E+00 -0.2852484E-07  0.3546311E-05  0.1469268E+01  0.3076752E+01
  0.5100000E+00  0.4770237E+00  0.3547578E-01 -0.2852484E-07  0.3204185E-05  0.1469268E+01  0.1105899E+00
  0.5200000E+00  0.4770237E+00 -0.7648209E+00 -0.2852484E-07  0.2759614E-05  0.1469268E+01 -0.2353430E+01
  0.5300000E+00  0.4770237E+00 -0.1380168E+01 -0.2852484E-07  0.2226771E-05  0.1469268E+01 -0.4247984E+01
  0.5400000E+00  0.4770237E+00 -0.1797532E+01 -0.2852484E-07  0.1623206E-05  0.1469268E+01 -0.5532960E+01
  0.5500000E+00  0.4770237E+00 -0.2012785E+01 -0.2852484E-07  0.9692382E-06  0.1469268E+01 -0.6195631E+01
  0.5600000E+00  0.4770237E+00 -0.2030423E+01 -0.2852484E-07  0.2872749E-06  0.1469268E+01 -0.6249852E+01
  0.5700000E+00  0.4770237E+00 -0.1862988E+01 -0.2852484E-07 -0.3990174E-06  0.1469268E+01 -0.5734247E+01
  0.5800000E+00  0.4770237E+00 -0.1530211E+01 -0.2852484E-07 -0.1065521E-05  0.1469268E+01 -0.4709562E+01
  0.5900000E+00  0.4770237E+00 -0.1057913E+01 -0.2852484E-07 -0.1688545E-05  0.1469268E+01 -0.3255311E+01
  0.6000000E+00  0.4770237E+00 -0.4767230E+00 -0.2852484E-07 -0.2245695E-05  0.1469268E+01 -0.1465789E+01
  0.6100000E+00  0.4770237E+00  0.1793515E+00 -0.2852484E-07 -0.2716670E-05  0.1469268E+01  0.5542709E+00
  0.6200000E+00  0.4770237E+00  0.8744020E+00 -0.2852484E-07 -0.3084028E-05  0.1469268E+01  0.2694313E+01
  0.6300000E+00  0.4770237E+00  0.1572160E+01 -0.2852484E-07 -0.3333827E-05  0.1469268E+01  0.4842661E+01
  0.6400000E+00  0.4770237E+00  0.2237468E+01 -0.2852484E-07 -0.3456165E-05  0.1469268E+01  0.6891068E+01
  0.6500000E+00  0.4770237E+00  0.2837661E+01 -0.2852484E-07 -0.3445561E-05  0.1469268E+01  0.8738959E+01
  0.6600000E+00  0.4770237E+00  0.3343829E+01 -0.2852484E-07 -0.3301182E-05  0.1469268E+01  0.1029731E+02
  0.6700000E+00  0.4770237E+00  0.3731854E+01 -0.2852484E-07 -0.3026919E-05  0.1469268E+01  0.1149187E+02
  0.6800000E+00  0.4770237E+00  0.3983273E+01 -0.2852484E-07 -0.2631267E-05  0.1469268E+01  0.1226580E+02
  0.6900000E+00  0.4770237E+00  0.4085853E+01 -0.2852484E-07 -0.2127071E-05  0.1469268E+01  0.1258142E+02
  0.7000000E+00  0.4770237E+00  0.4033946E+01 -0.2852484E-07 -0.1531074E-05  0.1469268E+01  0.1242136E+02
  0.7100000E+00  0.4770237E+00  0.3828531E+01 -0.2852484E-07 -0.8633635E-06  0.1469268E+01  0.1178864E+02
  0.7200000E+00  0.4770237E+00  0.3477031E+01 -0.2852484E-07 -0.1466582E-06  0.1469268E+01  0.1070611E+02
  0.7300000E+00  0.4770237E+00  0.2992862E+01 -0.2852484E-07  0.5944729E-06  0.1469268E+01  0.9215091E+01
  0.7400000E+00  0.4770237E+00  0.2394750E+01 -0.2852484E-07  0.1334499E-05  0.1469268E+01  0.7373243E+01
  0.7500000E+00  0.4770237E+00  0.1705894E+01 -0.2852484E-07  0.2047803E-05  0.1469268E+01  0.5252017E+01
  0.7600000E+00  0.4770237E+00  0.9529135E+00 -0.2852484E-07  0.2709622E-05  0.1469268E+01  0.2933368E+01
  0.7700000E+00  0.4770237E+00  0.1647294E+00 -0.2852484E-07  0.3296929E-05  0.1469268E+01  0.5063441E+00
  0.7800000E+00  0.4770237E+00 -0.6286409E+00 -0.2852484E-07  0.3789252E-05  0.1469268E+01 -0.1936610E+01
  0.7900000E+00  0.4770237E+00 -0.1397292E+01 -0.2852484E-07  0.4169431E-05  0.1469268E+01 -0.4303420E+01
  0.8000000E+00  0.4770237E+00 -0.2112633E+01 -0.2852484E-07  0.4424221E-05  0.1469268E+01 -0.6506045E+01
  0.8100000E+00  0.4770237E+00 -0.2748493E+01 -0.2852484E-07  0.4544815E-05  0.1469268E+01 -0.8463914E+01
  0.8200000E+00  0.4770237E+00 -0.3282107E+01 -0.2852484E-07  0.4527130E-05  0.1469268E+01 -0.1010692E+02
  0.8300000E+00  0.4770237E+00 -0.3694977E+01 -0.2852484E-07  0.4372004E-05  0.1469268E+01 -0.1137811E+02
  0.8400000E+00  0.4770237E+00 -0.3973527E+01 -0.2852484E-07  0.4085165E-05  0.1469268E+01 -0.1223570E+02
  0.8500000E+00  0.4770237E+00 -0.4109549E+01 -0.2852484E-07  0.3677039E-05  0.1469268E+01 -0.1265440E+02
  0.8600000E+00  0.4770237E+00 -0.4100451E+01 -0.2852484E-07  0.3162392E-05  0.1469268E+01 -0.1262624E+02
  0.8700000E+00  0.4770237E+00 -0.3949255E+01 -0.2852484E-07  0.2559806E-05  0.1469268E+01 -0.1216055E+02
  0.8800000E+00  0.4770237E+00 -0.3664404E+01 -0.2852484E-07  0.1891028E-05  0.1469268E+01 -0.1128329E+02
  0.8900000E+00  0.4770237E+00 -0.3259343E+01 -0.2852484E-07  0.1180195E-05  0.1469268E+01 -0.1003590E+02
  0.9000000E+00  0.4770237E+00 -0.2751898E+01 -0.2852484E-07  0.4529532E-06  0.1469268E+01 -0.8473275E+01
  0.9100000E+00  0.4770237E+00 -0.2163532E+01 -0.2852484E-07 -0.2644503E-06  0.1469268E+01 -0.6661483E+01
  0.9200000E+00  0.4770237E+00 -0.1518438E+01 -0.2852484E-07 -0.9461195E-06  0.1469268E+01 -0.4675032E+01
  0.9300000E+00  0.4770237E+00 -0.8425570E+00 -0.2852484E-07 -0.1567427E-05  0.1469268E+01 -0.2593817E+01
  0.9400000E+00  0.4770237E+00 -0.1625322E+00 -0.2852484E-07 -0.2105960E-05  0.1469268E+01 -0.4998590E+00
  0.9500000E+00  0.4770237E+00  0.4953303E+00 -0.2852484E-07 -0.2542265E-05  0.1469268E+01  0.1525832E+01
  0.9600000E+00  0.4770237E+00  0.1106092E+01 -0.2852484E-07 -0.2860637E-05  0.1469268E+01  0.3406465E+01
  0.9700000E+00  0.4770237E+00  0.1647121E+01 -0.2852484E-07 -0.3049657E-05  0.1469268E+01  0.5072353E+01
  0.9800000E+00  0.4770237E+00  0.2098943E+01 -0.2852484E-07 -0.3102617E-05  0.1469268E+01  0.6463530E+01
  0.9899999E+00  0.4770237E+00  0.2445953E+01 -0.2852484E-07 -0.3017809E-05  0.1469268E+01  0.7531959E+01
  0.1000000E+01  0.4770237E+00  0.2676951E+01 -0.2852484E-07 -0.2798583E-05  0.1469268E+01  0.8243140E+01
  0.1010000E+01  0.4770237E+00  0.2785511E+01 -0.2852484E-07 -0.2453246E-05  0.1469268E+01  0.8577295E+01
  0.1020000E+01  0.4770237E+00  0.2770161E+01 -0.2852484E-07 -0.1994785E-05  0.1469268E+01  0.8529902E+01
  0.1030000E+01  0.4770237E+00  0.2634358E+01 -0.2852484E-07 -0.1440409E-05  0.1469268E+01  0.8111606E+01
  0.1040000E+01  0.4770237E+00  0.2386258E+01 -0.2852484E-07 -0.8109396E-06  0.1469268E+01  0.7347525E+01
  0.1050000E+01  0.4770237E+00  0.2038350E+01 -0.2852484E-07 -0.1300723E-06  0.1469268E+01  0.6276115E+01
  0.1060000E+01  0.4770237E+00  0.1606863E+01 -0.2852484E-07  0.5764844E-06  0.1469268E+01  0.4947360E+01
  0.1070000E+01  0.4770237E+00  0.1111096E+01 -0.2852484E-07  0.1281905E-05  0.1469268E+01  0.3420687E+01
  0.1080000E+01  0.4770237E+00  0.5726001E+00 -0.2852484E-07  0.1959261E-05  0.1469268E+01  0.1762462E+01
  0.1090000E+01  0.4770237E+00  0.1427525E-01 -0.2852484E-07  0.2582478E-05  0.1469268E+01  0.4319472E-01
  0.1100000E+01  0.4770237E+00 -0.5405042E+00 -0.2852484E-07  0.3127257E-05  0.1469268E+01 -0.1665134E+01
  0.1110000E+01  0.4770237E+00 -0.1068868E+01 -0.2852484E-07  0.3572036E-05  0.1469268E+01 -0.3292100E+01
  0.1120000E+01  0.4770237E+00 -0.1549342E+01 -0.2852484E-07  0.3898736E-05  0.1469268E+01 -0.4771572E+01
  0.1130000E+01  0.4770237E+00 -0.1962649E+01 -0.2852484E-07  0.4093469E-05  0.1469268E+01 -0.6044206E+01
  0.1140000E+01  0.4770237E+00 -0.2292468E+01 -0.2852484E-07  0.4147027E-05  0.1469268E+01 -0.7059732E+01
  0.1150000E+01  0.4770237E+00 -0.2526041E+01 -0.2852484E-07  0.4055295E-05  0.1469268E+01 -0.7778881E+01
  0.1160000E+01  0.4770237E+00 -0.2654617E+01 -0.2852484E-07  0.3819401E-05  0.1469268E+01 -0.8174698E+01
  0.1170000E+01  0.4770237E+00 -0.2673763E+01 -0.2852484E-07  0.3445716E-05  0.1469268E+01 -0.8233541E+01
  0.1180000E+01  0.4770237E+00 -0.2583479E+01 -0.2852484E-07  0.2945661E-05  0.1469268E+01 -0.7955414E+01
  0.1190000E+01  0.4770237E+00 -0.2388161E+01 -0.2852484E-07  0.2335328E-05  0.1469268E+01 -0.7353849E+01
  0.1200000E+01  0.4770237E+00 -0.2096350E+01 -0.2852484E-07  0.1634927E-05  0.1469268E+01 -0.6455163E+01
  0.1210000E+01  0.4770237E+00 -0.1720372E+01 -0.2852484E-07  0.8680976E-06  0.1469268E+01 -0.5297304E+01
  0.1220000E+01  0.4770237E+00 -0.1275792E+01 -0.2852484E-07  0.6106171E-07  0.1469268E+01 -0.3928206E+01
  0.1230000E+01  0.4770237E+00 -0.7807795E+00 -0.2852484E-07 -0.7582650E-06  0.1469268E+01 -0.2403825E+01
  0.1240000E+01  0.4770237E+00 -0.2553645E+00 -0.2852484E-07 -0.1561297E-05  0.1469268E+01 -0.7858369E+00
  0.1250000E+01  0.4770237E+00  0.2794138E+00 -0.2852484E-07 -0.2319794E-05  0.1469268E+01  0.8609623E+00
  0.1260000E+01  0.4770237E+00  0.8022981E+00 -0.2852484E-07 -0.3006863E-05  0.1469268E+01  0.2471121E+01
  0.1270000E+01  0.4770237E+00  0.1292660E+01 -0.2852484E-07 -0.3597923E-05  0.1469268E+01  0.3981116E+01
  0.1280000E+01  0.4770237E+00  0.1731345E+01 -0.2852484E-07 -0.4071619E-05  0.1469268E+01  0.5331964E+01
  0.1290000E+01  0.4770237E+00  0.2101378E+01 -0.2852484E-07 -0.4410592E-05  0.1469268E+01  0.6471392E+01
  0.1300000E+01  0.4770237E+00  0.2388618E+01 -0.2852484E-07 -0.4602133E-05  0.1469268E+01  0.7355860E+01
  0.1310000E+01  0.4770237E+00  0.2582305E+01 -0.2852484E-07 -0.4638643E-05  0.1469268E+01  0.7952231E+01
  0.1320000E+01  0.4770237E+00  0.2675433E+01 -0.2852484E-07 -0.4517976E-05  0.1469268E+01  0.8238937E+01
  0.1330000E+01  0.4770237E+00  0.2665012E+01 -0.2852484E-07 -0.4243515E-05  0.1469268E+01  0.8206770E+01
  0.1340000E+01  0.4770237E+00  0.2552131E+01 -0.2852484E-07 -0.3824116E-05  0.1469268E+01  0.7859088E+01
  0.1350000E+01  0.4770237E+00  0.2341896E+01 -0.2852484E-07 -0.3273793E-05  0.1469268E+01  0.7211617E+01
  0.1360000E+01  0.4770237E+00  0.2043192E+01 -0.2852484E-07 -0.2611313E-05  0.1469268E+01  0.6291716E+01
  0.1370000E+01  0.4770237E+00  0.1668296E+01 -0.2852484E-07 -0.1859495E-05  0.1469268E+01  0.5137192E+01
  0.1380000E+01  0.4770237E+00  0.1232385E+01 -0.2852484E-07 -0.1044481E-05  0.1469268E+01  0.3794791E+01
  0.1390000E+01  0.4770237E+00  0.7528923E+00 -0.2852484E-07 -0.1948035E-06  0.1469268E+01  0.2318191E+01
  0.1400000E+01  0.4770237E+00  0.2488236E+00 -0.2852484E-07  0.6595967E-06  0.1469268E+01  0.7659178E+00
  0.1410000E+01  0.4770237E+00 -0.2599911E+00 -0.2852484E-07  0.1488401E-05  0.1469268E+01 -0.8009574E+00
  0.1420000E+01  0.4770237E+00 -0.7536942E+00 -0.2852484E-07  0.2262003E-05  0.1469268E+01 -0.2321287E+01
  0.1430000E+01  0.4770237E+00 -0.1213167E+01 -0.2852484E-07  0.2952543E-05  0.1469268E+01 -0.3736200E+01
  0.1440000E+01  0.4770237E+00 -0.1620793E+01 -0.2852484E-07  0.3534891E-05  0.1469268E+01 -0.4991445E+01
  0.1450000E+01  0.4770237E+00 -0.1961089E+01 -0.2852484E-07  0.3987533E-05  0.1469268E+01 -0.6039336E+01
  0.1460000E+01  0.4770237E+00 -0.2221339E+01 -0.2852484E-07  0.4293366E-05  0.1469268E+01 -0.6840736E+01
  0.1470000E+01  0.4770237E+00 -0.2392039E+01 -0.2852484E-07  0.4440306E-05  0.1469268E+01 -0.7366356E+01
  0.1480000E+01  0.4770237E+00 -0.2467247E+01 -0.2852484E-07  0.4421735E-05  0.1469268E+01 -0.7597918E+01
  0.1490000E+01  0.4770237E+00 -0.2444802E+01 -0.2852484E-07  0.4236749E-05  0.1469268E+01 -0.7528759E+01
  0.1500000E+01  0.4770237E+00 -0.2326361E+01 -0.2852484E-07  0.3890233E-05  0.1469268E+01 -0.7163985E+01
  0.1510000E+01  0.4770237E+00 -0.2117312E+01 -0.2852484E-07  0.3392700E-05  0.1469268E+01 -0.6520185E+01
  0.1520000E+01  0.4770237E+00 -0.1826534E+01 -0.2852484E-07  0.2759954E-05  0.1469268E+01 -0.5624707E+01
  0.1530000E+01  0.4770237E+00 -0.1466031E+01 -0.2852484E-07  0.2012554E-05  0.1469268E+01 -0.4514522E+01
  0.1540000E+01  0.4770237E+00 -0.1050423E+01 -0.2852484E-07  0.1175111E-05  0.1469268E+01 -0.3234639E+01
  0.1550000E+01  0.4770237E+00 -0.5963917E+00 -0.2852484E-07  0.2754686E-06  0.1469268E+01 -0.1836437E+01
  0.1560000E+01  0.4770237E+00 -0.1219653E+00 -0.2852484E-07 -0.6562889E-06  0.1469268E+01 -0.3754353E+00
  0.1570000E+01  0.4770237E+00  0.3541387E+00 -0.2852484E-07 -0.1588858E-05  0.1469268E+01  0.1090729E+01
  0.1580000E+01  0.4770237E+00  0.8132972E+00 -0.2852484E-07 -0.2490811E-05  0.1469268E+01  0.2504711E+01
  0.1590000E+01  0.4770237E+00  0.1237662E+01 -0.2852484E-07 -0.3331661E-05  0.1469268E+01  0.3811537E+01
  0.1600000E+01  0.4770237E+00  0.1610876E+01 -0.2852484E-07 -0.4082971E-05  0.1469268E+01  0.4960844E+01
  0.1610000E+01  0.4770237E+00  0.1918695E+01 -0.2852484E-07 -0.4719326E-05  0.1469268E+01  0.5908765E+01
  0.1620000E+01  0.4770237E+00  0.2149497E+01 -0.2852484E-07 -0.5219178E-05  0.1469268E+01  0.6619514E+01
  0.1630000E+01  0.4770237E+00  0.2294765E+01 -0.2852484E-07 -0.5565687E-05  0.1469268E+01  0.7066859E+01
  0.1640000E+01  0.4770237E+00  0.2349361E+01 -0.2852484E-07 -0.5747267E-05  0.1469268E+01  0.7234981E+01
  0.1650000E+01  0.4770237E+00  0.2311695E+01 -0.2852484E-07 -0.5757984E-05  0.1469268E+01  0.7118979E+01
  0.1660000E+01  0.4770237E+00  0.2183803E+01 -0.2852484E-07 -0.5597803E-05  0.1469268E+01  0.6725126E+01
  0.1670000E+01  0.4770237E+00  0.1971191E+01 -0.2852484E-07 -0.5272580E-05  0.1469268E+01  0.6070375E+01
  0.1680000E+01  0.4770237E+00  0.1682635E+01 -0.2852484E-07 -0.4793869E-05  0.1469268E+01  0.5181756E+01
  0.1690000E+01  0.4770237E+00  0.1329808E+01 -0.2852484E-07 -0.4178523E-05  0.1469268E+01  0.4095214E+01
  0.1700000E+01  0.4770237E+00  0.9267930E+00 -0.2852484E-07 -0.3448118E-05  0.1469268E+01  0.2854118E+01
  0.1710000E+01  0.4770237E+00  0.4895458E+00 -0.2852484E-07 -0.2628204E-05  0.1469268E+01  0.1507597E+01
  0.1720000E+01  0.4770237E+00  0.3524184E-01 -0.2852484E-07 -0.1747403E-05  0.1469268E+01  0.1085519E+00
  0.1730000E+01  0.4770237E+00 -0.4184002E+00 -0.2852484E-07 -0.8364248E-06  0.1469268E+01 -0.1288460E+01
  0.1740000E+01  0.4770237E+00 -0.8537651E+00 -0.2852484E-07  0.7294931E-07  0.1469268E+01 -0.2629188E+01
  0.1750000E+01  0.4770237E+00 -0.1254078E+01 -0.2852484E-07  0.9490790E-06  0.1469268E+01 -0.3861976E+01
  0.1760000E+01  0.4770237E+00 -0.1604027E+01 -0.2852484E-07  0.1761512E-05  0.1469268E+01 -0.4939674E+01
  0.1770000E+01  0.4770237E+00 -0.1890335E+01 -0.2852484E-07  0.2481994E-05  0.1469268E+01 -0.5821383E+01
  0.1780000E+01  0.4770237E+00 -0.2102268E+01 -0.2852484E-07  0.3085559E-05  0.1469268E+01 -0.6474058E+01
  0.1790000E+01  0.4770237E+00 -0.2232037E+01 -0.2852484E-07  0.3551330E-05  0.1469268E+01 -0.6873709E+01
  0.1800000E+01  0.4770237E+00 -0.2275084E+01 -0.2852484E-07  0.3863267E-05  0.1469268E+01 -0.7006300E+01
  0.1810000E+01  0.4770237E+00 -0.2230219E+01 -0.2852484E-07  0.4010725E-05  0.1469268E+01 -0.6868163E+01
  0.1820000E+01  0.4770237E+00 -0.2099662E+01 -0.2852484E-07  0.3988834E-05  0.1469268E+01 -0.6466130E+01
  0.1830000E+01  0.4770237E+00 -0.1888923E+01 -0.2852484E-07  0.3798663E-05  0.1469268E+01 -0.5817174E+01
  0.1840000E+01  0.4770237E+00 -0.1606579E+01 -0.2852484E-07  0.3447172E-05  0.1469268E+01 -0.4947707E+01
  0.1850000E+01  0.4770237E+00 -0.1263927E+01 -0.2852484E-07  0.2946989E-05  0.1469268E+01 -0.3892505E+01
  0.1860000E+01  0.4770237E+00 -0.8745046E+00 -0.2852484E-07  0.2315963E-05  0.1469268E+01 -0.2693276E+01
  0.1870000E+01  0.4770237E+00 -0.4535679E+00 -0.2852484E-07  0.1576533E-05  0.1469268E+01 -0.1396984E+01
  0.1880000E+01  0.4770237E+00 -0.1751367E-01 -0.2852484E-07  0.7549506E-06  0.1469268E+01 -0.5413320E-01
  0.1890000E+01  0.4770237E+00  0.4167876E+00 -0.2852484E-07 -0.1196388E-06  0.1469268E+01  0.1283329E+01
  0.1900000E+01  0.4770237E+00  0.8326357E+00 -0.2852484E-07 -0.1016214E-05  0.1469268E+01  0.2563975E+01
  0.1910000E+01  0.4770237E+00  0.1214151E+01 -0.2852484E-07 -0.1902967E-05  0.1469268E+01  0.3738896E+01
  0.1920000E+01  0.4770237E+00  0.1546858E+01 -0.2852484E-07 -0.2748402E-05  0.1469268E+01  0.4763521E+01
  0.1930000E+01  0.4770237E+00  0.1818257E+01 -0.2852484E-07 -0.3522442E-05  0.1469268E+01  0.5599351E+01
  0.1940000E+01  0.4770237E+00  0.2018286E+01 -0.2852484E-07 -0.4197493E-05  0.1469268E+01  0.6215400E+01
  0.1950000E+01  0.4770237E+00  0.2139674E+01 -0.2852484E-07 -0.4749338E-05  0.1469268E+01  0.6589272E+01
  0.1960000E+01  0.4770237E+00  0.2178237E+01 -0.2852484E-07 -0.5158080E-05  0.1469268E+01  0.6708087E+01
  0.1970000E+01  0.4770237E+00  0.2132986E+01 -0.2852484E-07 -0.5408765E-05  0.1469268E+01  0.6568788E+01
  0.1980000E+01  0.4770237E+00  0.2006161E+01 -0.2852484E-07 -0.5491922E-05  0.1469268E+01  0.6178280E+01
  0.1990000E+01  0.4770237E+00  0.1803131E+01 -0.2852484E-07 -0.5403882E-05  0.1469268E+01  0.5553091E+01
  0.2000000E+01  0.4770237E+00  0.1532129E+01 -0.2852484E-07 -0.5146903E-05  0.1469268E+01  0.4718568E+01
  0.2010000E+01  0.4770237E+00  0.1203976E+01 -0.2852484E-07 -0.4729085E-05  0.1469268E+01  0.3708038E+01
  0.2020000E+01  0.4770237E+00  0.8316100E+00 -0.2852484E-07 -0.4164077E-05  0.1469268E+01  0.2561343E+01
  0.2030000E+01  0.4770237E+00  0.4295709E+00 -0.2852484E-07 -0.3470613E-05  0.1469268E+01  0.1323253E+01
  0.2040000E+01  0.4770237E+00  0.1345153E-01 -0.2852484E-07 -0.2671801E-05  0.1469268E+01  0.4179028E-01
  0.2050000E+01  0.4770237E+00 -0.4007101E+00 -0.2852484E-07 -0.1794383E-05  0.1469268E+01 -0.1233658E+01
  0.2060000E+01  0.4770237E+00 -0.7970650E+00 -0.2852484E-07 -0.8677268E-06  0.1469268E+01 -0.2454282E+01
  0.2070000E+01  0.4770237E+00 -0.1160535E+01 -0.2852484E-07  0.7717009E-07  0.1469268E+01 -0.3573652E+01
  0.2080000E+01  0.4770237E+00 -0.1477411E+01 -0.2852484E-07  0.1008773E-05  0.1469268E+01 -0.4549542E+01
  0.2090000E+01  0.4770237E+00 -0.1735855E+01 -0.2852484E-07  0.1896126E-05  0.1469268E+01 -0.5345502E+01
  0.2100000E+01  0.4770237E+00 -0.1926328E+01 -0.2852484E-07  0.2709919E-05  0.1469268E+01 -0.5932150E+01
  0.2110000E+01  0.4770237E+00 -0.2041979E+01 -0.2852484E-07  0.3423541E-05  0.1469268E+01 -0.6288387E+01
  0.2120000E+01  0.4770237E+00 -0.2078845E+01 -0.2852484E-07  0.4013941E-05  0.1469268E+01 -0.6402000E+01
  0.2130000E+01  0.4770237E+00 -0.2036012E+01 -0.2852484E-07  0.4462522E-05  0.1469268E+01 -0.6270182E+01
  0.2140000E+01  0.4770237E+00 -0.1915630E+01 -0.2852484E-07  0.4755730E-05  0.1469268E+01 -0.5899543E+01
  0.2150000E+01  0.4770237E+00 -0.1722781E+01 -0.2852484E-07  0.4885540E-05  0.1469268E+01 -0.5305728E+01
  0.2160000E+01  0.4770237E+00 -0.1465300E+01 -0.2852484E-07  0.4849711E-05  0.1469268E+01 -0.4512867E+01
  0.2170000E+01  0.4770237E+00 -0.1153444E+01 -0.2852484E-07  0.4651867E-05  0.1469268E+01 -0.3552542E+01
  0.2180000E+01  0.4770237E+00 -0.7994474E+00 -0.2852484E-07  0.4301367E-05  0.1469268E+01 -0.2462430E+01
  0.2190000E+01  0.4770237E+00 -0.4171231E+00 -0.2852484E-07  0.3812972E-05  0.1469268E+01 -0.1285065E+01
  0.2200000E+01  0.4770237E+00 -0.2123475E-01 -0.2852484E-07  0.3206285E-05  0.1469268E+01 -0.6590920E-01
  0.2210000E+01  0.4770237E+00  0.3730157E+00 -0.2852484E-07  0.2505087E-05  0.1469268E+01  0.1148222E+01
  0.2220000E+01  0.4770237E+00  0.7506130E+00 -0.2852484E-07  0.1736472E-05  0.1469268E+01  0.2311087E+01
  0.2230000E+01  0.4770237E+00  0.1097258E+01 -0.2852484E-07  0.9298956E-06  0.1469268E+01  0.3378654E+01
  0.2240000E+01  0.4770237E+00  0.1399928E+01 -0.2852484E-07  0.1161299E-06  0.1469268E+01  0.4310813E+01
  0.2250000E+01  0.4770237E+00  0.1647395E+01 -0.2852484E-07 -0.6738387E-06  0.1469268E+01  0.5072985E+01
  0.2260000E+01  0.4770237E+00  0.1830592E+01 -0.2852484E-07 -0.1409840E-05  0.1469268E+01  0.5637247E+01
  0.2270000E+01  0.4770237E+00  0.1942964E+01 -0.2852484E-07 -0.2063687E-05  0.1469268E+01  0.5983409E+01
  0.2280000E+01  0.4770237E+00  0.1980718E+01 -0.2852484E-07 -0.2610102E-05  0.1469268E+01  0.6099782E+01
  0.2290000E+01  0.4770237E+00  0.1942913E+01 -0.2852484E-07 -0.3027631E-05  0.1469268E+01  0.5983469E+01
  0.2300000E+01  0.4770237E+00  0.1831501E+01 -0.2852484E-07 -0.3299393E-05  0.1469268E+01  0.5640478E+01
  0.2310000E+01  0.4770237E+00  0.1651244E+01 -0.2852484E-07 -0.3413684E-05  0.1469268E+01  0.5085466E+01
  0.2320000E+01  0.4770237E+00  0.1409462E+01 -0.2852484E-07 -0.3364408E-05  0.1469268E+01  0.4340974E+01
  0.2330000E+01  0.4770237E+00  0.1115761E+01 -0.2852484E-07 -0.3151247E-05  0.1469268E+01  0.3436579E+01
  0.2340000E+01  0.4770237E+00  0.7816946E+00 -0.2852484E-07 -0.2779735E-05  0.1469268E+01  0.2407859E+01
  0.2350000E+01  0.4770237E+00  0.4202369E+00 -0.2852484E-07 -0.2261041E-05  0.1469268E+01  0.1294765E+01
  0.2360000E+01  0.4770237E+00  0.4531785E-01 -0.2852484E-07 -0.1611577E-05  0.1469268E+01  0.1401939E+00
  0.2370000E+01  0.4770237E+00 -0.3287247E+00 -0.2852484E-07 -0.8524340E-06  0.1469268E+01 -0.1011704E+01
  0.2380000E+01  0.4770237E+00 -0.6876833E+00 -0.2852484E-07 -0.8650484E-08  0.1469268E+01 -0.2117172E+01
  0.2390000E+01  0.4770237E+00 -0.1018048E+01 -0.2852484E-07  0.8916768E-06  0.1469268E+01 -0.3134606E+01
  0.2400000E+01  0.4770237E+00 -0.1307474E+01 -0.2852484E-07  0.1818321E-05  0.1469268E+01 -0.4025988E+01
  0.2410000E+01  0.4770237E+00 -0.1545271E+01 -0.2852484E-07  0.2740054E-05  0.1469268E+01 -0.4758396E+01
  0.2420000E+01  0.4770237E+00 -0.1722811E+01 -0.2852484E-07  0.3625677E-05  0.1469268E+01 -0.5305253E+01
  0.2430000E+01  0.4770237E+00 -0.1833799E+01 -0.2852484E-07  0.4445132E-05  0.1469268E+01 -0.5647168E+01
  0.2440000E+01  0.4770237E+00 -0.1874511E+01 -0.2852484E-07  0.5170551E-05  0.1469268E+01 -0.5772674E+01
  0.2450000E+01  0.4770237E+00 -0.1843952E+01 -0.2852484E-07  0.5777181E-05  0.1469268E+01 -0.5678693E+01
  0.2460000E+01  0.4770237E+00 -0.1743819E+01 -0.2852484E-07  0.6244280E-05  0.1469268E+01 -0.5370457E+01
  0.2470000E+01  0.4770237E+00 -0.1578411E+01 -0.2852484E-07  0.6555869E-05  0.1469268E+01 -0.4861196E+01
  0.2480000E+01  0.4770237E+00 -0.1354528E+01 -0.2852484E-07  0.6701216E-05  0.1469268E+01 -0.4171843E+01
  0.2490000E+01  0.4770237E+00 -0.1081100E+01 -0.2852484E-07  0.6675234E-05  0.1469268E+01 -0.3329898E+01
  0.2500000E+01  0.4770237E+00 -0.7688724E+00 -0.2852484E-07  0.6478650E-05  0.1469268E+01 -0.2368446E+01
  0.2510000E+01  0.4770237E+00 -0.4299656E+00 -0.2852484E-07  0.6117975E-05  0.1469268E+01 -0.1324810E+01
  0.2520000E+01  0.4770237E+00 -0.7743344E-01 -0.2852484E-07  0.5605252E-05  0.1469268E+01 -0.2391876E+00
  0.2530000E+01  0.4770237E+00  0.2752737E+00 -0.2852484E-07  0.4957657E-05  0.1469268E+01  0.8469962E+00
  0.2540000E+01  0.4770237E+00  0.6147995E+00 -0.2852484E-07  0.4196864E-05  0.1469268E+01  0.1892620E+01
  0.2550000E+01  0.4770237E+00  0.9283997E+00 -0.2852484E-07  0.3348296E-05  0.1469268E+01  0.2858431E+01
  0.2560000E+01  0.4770237E+00  0.1204438E+01 -0.2852484E-07  0.2440232E-05  0.1469268E+01  0.3708590E+01
  0.2570000E+01  0.4770237E+00  0.1432761E+01 -0.2852484E-07  0.1502813E-05  0.1469268E+01  0.4411831E+01
  0.2580000E+01  0.4770237E+00  0.1605132E+01 -0.2852484E-07  0.5669986E-06  0.1469268E+01  0.4942780E+01
  0.2590000E+01  0.4770237E+00  0.1715507E+01 -0.2852484E-07 -0.3365267E-06  0.1469268E+01  0.5282824E+01
  0.2600000E+01  0.4770237E+00  0.1760222E+01 -0.2852484E-07 -0.1178420E-05  0.1469268E+01  0.5420675E+01
  0.2610000E+01  0.4770237E+00  0.1738142E+01 -0.2852484E-07 -0.1931661E-05  0.1469268E+01  0.5352827E+01
  0.2620000E+01  0.4770237E+00  0.1650678E+01 -0.2852484E-07 -0.2572561E-05  0.1469268E+01  0.5083623E+01
  0.2630000E+01  0.4770237E+00  0.1501685E+01 -0.2852484E-07 -0.3081514E-05  0.1469268E+01  0.4624929E+01
  0.2640000E+01  0.4770237E+00  0.1297332E+01 -0.2852484E-07 -0.3443697E-05  0.1469268E+01  0.3995738E+01
  0.2650000E+01  0.4770237E+00  0.1045806E+01 -0.2852484E-07 -0.3649574E-05  0.1469268E+01  0.3221259E+01
  0.2660000E+01  0.4770237E+00  0.7570274E+00 -0.2852484E-07 -0.3695189E-05  0.1469268E+01  0.2332034E+01
  0.2670000E+01  0.4770237E+00  0.4422280E+00 -0.2852484E-07 -0.3582300E-05  0.1469268E+01  0.1362650E+01
  0.2680000E+01  0.4770237E+00  0.1135179E+00 -0.2852484E-07 -0.3318304E-05  0.1469268E+01  0.3504013E+00
  0.2690000E+01  0.4770237E+00 -0.2165785E+00 -0.2852484E-07 -0.2915930E-05  0.1469268E+01 -0.6661483E+00
  0.2700000E+01  0.4770237E+00 -0.5355718E+00 -0.2852484E-07 -0.2392819E-05  0.1469268E+01 -0.1648537E+01
  0.2710000E+01  0.4770237E+00 -0.8315408E+00 -0.2852484E-07 -0.1770819E-05  0.1469268E+01 -0.2560051E+01
  0.2720000E+01  0.4770237E+00 -0.1093531E+01 -0.2852484E-07 -0.1075249E-05  0.1469268E+01 -0.3366955E+01
  0.2730000E+01  0.4770237E+00 -0.1311978E+01 -0.2852484E-07 -0.3339504E-06  0.1469268E+01 -0.4039785E+01
  0.2740000E+01  0.4770237E+00 -0.1479043E+01 -0.2852484E-07  0.4236450E-06  0.1469268E+01 -0.4554407E+01
  0.2750000E+01  0.4770237E+00 -0.1588919E+01 -0.2852484E-07  0.1167647E-05  0.1469268E+01 -0.4892927E+01
  0.2760000E+01  0.4770237E+00 -0.1637995E+01 -0.2852484E-07  0.1868710E-05  0.1469268E+01 -0.5044221E+01
  0.2770000E+01  0.4770237E+00 -0.1625005E+01 -0.2852484E-07  0.2499100E-05  0.1469268E+01 -0.5004384E+01
  0.2780000E+01  0.4770237E+00 -0.1551034E+01 -0.2852484E-07  0.3033679E-05  0.1469268E+01 -0.4776753E+01