 VARIABLES="Time (s)"
"AddedMass    1" "IRF    1"
"AddedMass    2" "IRF    2"
"AddedMass    3" "IRF    3"
Zone t="DoF    1",I=   160,F=POINT
  0.0000000E+00  0.8549610E+05  0.1183205E+06  0.6246850E-02 -0.5297501E-02 -0.4435968E+05 -0.6589787E+05
  0.1000000E+00  0.8549610E+05  0.1166569E+06  0.6246850E-02 -0.5136075E-02 -0.4435968E+05 -0.6502552E+05
  0.2000000E+00  0.8549610E+05  0.1117185E+06  0.6246850E-02 -0.4661753E-02 -0.4435968E+05 -0.6243422E+05
  0.3000000E+00  0.8549610E+05  0.1036598E+06  0.6246850E-02 -0.3903675E-02 -0.4435968E+05 -0.5820047E+05
  0.4000000E+00  0.8549610E+05  0.9273265E+05  0.6246850E-02 -0.2908112E-02 -0.4435968E+05 -0.5244870E+05
  0.5000000E+00  0.8549610E+05  0.7927719E+05  0.6246850E-02 -0.1735190E-02 -0.4435968E+05 -0.4534706E+05
  0.6000000E+00  0.8549610E+05  0.6371049E+05  0.6246850E-02 -0.4546743E-03 -0.4435968E+05 -0.3710176E+05
  0.7000000E+00  0.8549610E+05  0.4651216E+05  0.6246850E-02  0.8588644E-03 -0.4435968E+05 -0.2795001E+05
  0.8000000E+00  0.8549610E+05  0.2820813E+05  0.6246850E-02  0.2131153E-02 -0.4435968E+05 -0.1815234E+05
  0.9000000E+00  0.8549610E+05  0.9352921E+04  0.6246850E-02  0.3293172E-02 -0.4435968E+05 -0.7984207E+04
  0.1000000E+01  0.8549610E+05 -0.9488739E+04  0.6246850E-02  0.4285614E-02 -0.4435968E+05  0.2272556E+04
  0.1100000E+01  0.8549610E+05 -0.2776053E+05  0.6246850E-02  0.5062518E-02 -0.4435968E+05  0.1233825E+05
  0.1200000E+01  0.8549610E+05 -0.4493248E+05  0.6246850E-02  0.5593803E-02 -0.4435968E+05  0.2194337E+05
  0.1300000E+01  0.8549610E+05 -0.6051775E+05  0.6246850E-02  0.5866558E-02 -0.4435968E+05  0.3083608E+05
  0.1400000E+01  0.8549610E+05 -0.7408770E+05  0.6246850E-02  0.5885004E-02 -0.4435968E+05  0.3878881E+05
  0.1500000E+01  0.8549610E+05 -0.8528465E+05  0.6246850E-02  0.5669169E-02 -0.4435968E+05  0.4560400E+05
  0.1600000E+01  0.8549610E+05 -0.9383184E+05  0.6246850E-02  0.5252433E-02 -0.4435968E+05  0.5111861E+05
  0.1700000E+01  0.8549610E+05 -0.9954083E+05  0.6246850E-02  0.4678146E-02 -0.4435968E+05  0.5520752E+05
  0.1800000E+01  0.8549610E+05 -0.1023151E+06  0.6246850E-02  0.3995623E-02 -0.4435968E+05  0.5778611E+05
  0.1900000E+01  0.8549610E+05 -0.1021514E+06  0.6246850E-02  0.3255873E-02 -0.4435968E+05  0.5881137E+05
  0.2000000E+01  0.8549610E+05 -0.9913684E+05  0.6246850E-02  0.2507386E-02 -0.4435968E+05  0.5828217E+05
  0.2100000E+01  0.8549610E+05 -0.9344398E+05  0.6246850E-02  0.1792337E-02 -0.4435968E+05  0.5623864E+05
  0.2200000E+01  0.8549610E+05 -0.8532270E+05  0.6246850E-02  0.1143509E-02 -0.4435968E+05  0.5276047E+05
  0.2300000E+01  0.8549610E+05 -0.7508993E+05  0.6246850E-02  0.5821289E-03 -0.4435968E+05  0.4796444E+05
  0.2400000E+01  0.8549610E+05 -0.6311732E+05  0.6246850E-02  0.1168301E-03 -0.4435968E+05  0.4200121E+05
  0.2500000E+01  0.8549610E+05 -0.4981773E+05  0.6246850E-02 -0.2562464E-03 -0.4435968E+05  0.3505122E+05
  0.2600000E+01  0.8549610E+05 -0.3563046E+05  0.6246850E-02 -0.5522562E-03 -0.4435968E+05  0.2732000E+05
  0.2700000E+01  0.8549610E+05 -0.2100647E+05  0.6246850E-02 -0.7954462E-03 -0.4435968E+05  0.1903281E+05
  0.2800000E+01  0.8549610E+05 -0.6393446E+04  0.6246850E-02 -0.1016202E-02 -0.4435968E+05  0.1042863E+05
  0.2900000E+01  0.8549610E+05  0.7778435E+04  0.6246850E-02 -0.1247565E-02 -0.4435968E+05  0.1753617E+04
  0.3000000E+01  0.8549610E+05  0.2110937E+05  0.6246850E-02 -0.1521566E-02 -0.4435968E+05 -0.6745582E+04
  0.3100000E+01  0.8549610E+05  0.3324182E+05  0.6246850E-02 -0.1865669E-02 -0.4435968E+05 -0.1482921E+05
  0.3200000E+01  0.8549610E+05  0.4386998E+05  0.6246850E-02 -0.2299624E-02 -0.4435968E+05 -0.2227131E+05
  0.3300000E+01  0.8549610E+05  0.5274766E+05  0.6246850E-02 -0.2833003E-02 -0.4435968E+05 -0.2886696E+05
  0.3400000E+01  0.8549610E+05  0.5969350E+05  0.6246850E-02 -0.3463626E-02 -0.4435968E+05 -0.3443874E+05
  0.3500000E+01  0.8549610E+05  0.6459400E+05  0.6246850E-02 -0.4176971E-02 -0.4435968E+05 -0.3884261E+05
  0.3600000E+01  0.8549610E+05  0.6740423E+05  0.6246850E-02 -0.4946673E-02 -0.4435968E+05 -0.4197296E+05
  0.3700000E+01  0.8549610E+05  0.6814600E+05  0.6246850E-02 -0.5736012E-02 -0.4435968E+05 -0.4376624E+05
  0.3800000E+01  0.8549610E+05  0.6690418E+05  0.6246850E-02 -0.6500293E-02 -0.4435968E+05 -0.4420330E+05
  0.3900000E+01  0.8549610E+05  0.6382077E+05  0.6246850E-02 -0.7189949E-02 -0.4435968E+05 -0.4331007E+05
  0.4000000E+01  0.8549610E+05  0.5908757E+05  0.6246850E-02 -0.7754084E-02 -0.4435968E+05 -0.4115645E+05
  0.4100000E+01  0.8549610E+05  0.5293754E+05  0.6246850E-02 -0.8144221E-02 -0.4435968E+05 -0.3785349E+05
  0.4200000E+01  0.8549610E+05  0.4563492E+05  0.6246850E-02 -0.8317931E-02 -0.4435968E+05 -0.3354900E+05
  0.4300000E+01  0.8549610E+05  0.3746518E+05  0.6246850E-02 -0.8242097E-02 -0.4435968E+05 -0.2842151E+05
  0.4400000E+01  0.8549610E+05  0.2872443E+05  0.6246850E-02 -0.7895577E-02 -0.4435968E+05 -0.2267285E+05
  0.4500000E+01  0.8549610E+05  0.1970925E+05  0.6246850E-02 -0.7271046E-02 -0.4435968E+05 -0.1652007E+05
  0.4600000E+01  0.8549610E+05  0.1070693E+05  0.6246850E-02 -0.6375915E-02 -0.4435968E+05 -0.1018651E+05
  0.4700000E+01  0.8549610E+05  0.1986696E+04  0.6246850E-02 -0.5232269E-02 -0.4435968E+05 -0.3892842E+04
  0.4800000E+01  0.8549610E+05 -0.6207947E+04  0.6246850E-02 -0.3875845E-02 -0.4435968E+05  0.2151485E+04
  0.4900000E+01  0.8549610E+05 -0.1366572E+05  0.6246850E-02 -0.2354102E-02 -0.4435968E+05  0.7756386E+04
  0.5000000E+01  0.8549610E+05 -0.2021236E+05  0.6246850E-02 -0.7235828E-03 -0.4435968E+05  0.1275791E+05
  0.5100000E+01  0.8549610E+05 -0.2571382E+05  0.6246850E-02  0.9532663E-03 -0.4435968E+05  0.1702365E+05
  0.5200000E+01  0.8549610E+05 -0.3007808E+05  0.6246850E-02  0.2611601E-02 -0.4435968E+05  0.2045658E+05
  0.5300000E+01  0.8549610E+05 -0.3325503E+05  0.6246850E-02  0.4187724E-02 -0.4435968E+05  0.2299693E+05
  0.5400000E+01  0.8549610E+05 -0.3523539E+05  0.6246850E-02  0.5622533E-02 -0.4435968E+05  0.2462247E+05
  0.5500000E+01  0.8549610E+05 -0.3604784E+05  0.6246850E-02  0.6864522E-02 -0.4435968E+05  0.2534680E+05
  0.5600000E+01  0.8549610E+05 -0.3575524E+05  0.6246850E-02  0.7872267E-02 -0.4435968E+05  0.2521621E+05
  0.5700000E+01  0.8549610E+05 -0.3445005E+05  0.6246850E-02  0.8616208E-02 -0.4435968E+05  0.2430519E+05
  0.5800000E+01  0.8549610E+05 -0.3224891E+05  0.6246850E-02  0.9079658E-02 -0.4435968E+05  0.2271087E+05
  0.5900000E+01  0.8549610E+05 -0.2928691E+05  0.6246850E-02  0.9259054E-02 -0.4435968E+05  0.2054702E+05
  0.6000000E+01  0.8549610E+05 -0.2571172E+05  0.6246850E-02  0.9163382E-02 -0.4435968E+05  0.1793756E+05
  0.6100000E+01  0.8549610E+05 -0.2167777E+05  0.6246850E-02  0.8812984E-02 -0.4435968E+05  0.1501042E+05
  0.6200000E+01  0.8549610E+05 -0.1734068E+05  0.6246850E-02  0.8237729E-02 -0.4435968E+05  0.1189165E+05
  0.6300000E+01  0.8549610E+05 -0.1285232E+05  0.6246850E-02  0.7474857E-02 -0.4435968E+05  0.8700546E+04
  0.6400000E+01  0.8549610E+05 -0.8356304E+04  0.6246850E-02  0.6566473E-02 -0.4435968E+05  0.5545424E+04
  0.6500000E+01  0.8549610E+05 -0.3984053E+04  0.6246850E-02  0.5557020E-02 -0.4435968E+05  0.2520546E+04
  0.6600000E+01  0.8549610E+05  0.1478654E+03  0.6246850E-02  0.4490830E-02 -0.4435968E+05 -0.2956224E+03
  0.6700000E+01  0.8549610E+05  0.3940168E+04  0.6246850E-02  0.3409869E-02 -0.4435968E+05 -0.2841392E+04
  0.6800000E+01  0.8549610E+05  0.7312166E+04  0.6246850E-02  0.2351870E-02 -0.4435968E+05 -0.5071662E+04
  0.6900000E+01  0.8549610E+05  0.1020242E+05  0.6246850E-02  0.1348853E-02 -0.4435968E+05 -0.6956991E+04
  0.7000000E+01  0.8549610E+05  0.1256879E+05  0.6246850E-02  0.4261587E-03 -0.4435968E+05 -0.8482061E+04
  0.7100000E+01  0.8549610E+05  0.1438779E+05  0.6246850E-02 -0.3980296E-03 -0.4435968E+05 -0.9643729E+04
  0.7200000E+01  0.8549610E+05  0.1565352E+05  0.6246850E-02 -0.1112693E-02 -0.4435968E+05 -0.1044891E+05
  0.7300000E+01  0.8549610E+05  0.1637613E+05  0.6246850E-02 -0.1713531E-02 -0.4435968E+05 -0.1091247E+05
  0.7400000E+01  0.8549610E+05  0.1658004E+05  0.6246850E-02 -0.2202187E-02 -0.4435968E+05 -0.1105527E+05
  0.7500000E+01  0.8549610E+05  0.1630199E+05  0.6246850E-02 -0.2585178E-02 -0.4435968E+05 -0.1090257E+05
  0.7600000E+01  0.8549610E+05  0.1558886E+05  0.6246850E-02 -0.2872661E-02 -0.4435968E+05 -0.1048267E+05
  0.7700000E+01  0.8549610E+05  0.1449550E+05  0.6246850E-02 -0.3077134E-02 -0.4435968E+05 -0.9826003E+04
  0.7800000E+01  0.8549610E+05  0.1308264E+05  0.6246850E-02 -0.3212142E-02 -0.4435968E+05 -0.8964548E+04
  0.7900000E+01  0.8549610E+05  0.1141471E+05  0.6246850E-02 -0.3291115E-02 -0.4435968E+05 -0.7931438E+04
  0.8000000E+01  0.8549610E+05  0.9557974E+04  0.6246850E-02 -0.3326359E-02 -0.4435968E+05 -0.6760866E+04
  0.8100000E+01  0.8549610E+05  0.7578566E+04  0.6246850E-02 -0.3328312E-02 -0.4435968E+05 -0.5487935E+04
  0.8200000E+01  0.8549610E+05  0.5540918E+04  0.6246850E-02 -0.3305004E-02 -0.4435968E+05 -0.4148590E+04
  0.8300000E+01  0.8549610E+05  0.3506143E+04  0.6246850E-02 -0.3261844E-02 -0.4435968E+05 -0.2779298E+04
  0.8400001E+01  0.8549610E+05  0.1530689E+04  0.6246850E-02 -0.3201623E-02 -0.4435968E+05 -0.1416639E+04
  0.8500000E+01  0.8549610E+05 -0.3346130E+03  0.6246850E-02 -0.3124784E-02 -0.4435968E+05 -0.9675523E+02
  0.8600000E+01  0.8549610E+05 -0.2045754E+04  0.6246850E-02 -0.3029859E-02 -0.4435968E+05  0.1145678E+04
  0.8700000E+01  0.8549610E+05 -0.3566042E+04  0.6246850E-02 -0.2914050E-02 -0.4435968E+05  0.2278308E+04
  0.8800000E+01  0.8549610E+05 -0.4866806E+04  0.6246850E-02 -0.2773901E-02 -0.4435968E+05  0.3272393E+04
  0.8900001E+01  0.8549610E+05 -0.5927383E+04  0.6246850E-02 -0.2605994E-02 -0.4435968E+05  0.4103745E+04
  0.9000000E+01  0.8549610E+05 -0.6735631E+04  0.6246850E-02 -0.2407572E-02 -0.4435968E+05  0.4754073E+04
  0.9100000E+01  0.8549610E+05 -0.7287233E+04  0.6246850E-02 -0.2177132E-02 -0.4435968E+05  0.5211547E+04
  0.9200000E+01  0.8549610E+05 -0.7585779E+04  0.6246850E-02 -0.1914826E-02 -0.4435968E+05  0.5471639E+04
  0.9300000E+01  0.8549610E+05 -0.7641883E+04  0.6246850E-02 -0.1622714E-02 -0.4435968E+05  0.5537202E+04
  0.9400001E+01  0.8549610E+05 -0.7472537E+04  0.6246850E-02 -0.1304886E-02 -0.4435968E+05  0.5418365E+04
  0.9500000E+01  0.8549610E+05 -0.7100198E+04  0.6246850E-02 -0.9672975E-03 -0.4435968E+05  0.5132005E+04
  0.9600000E+01  0.8549610E+05 -0.6551715E+04  0.6246850E-02 -0.6175154E-03 -0.4435968E+05  0.4700725E+04
  0.9700000E+01  0.8549610E+05 -0.5857217E+04  0.6246850E-02 -0.2642911E-03 -0.4435968E+05  0.4151648E+04
  0.9800000E+01  0.8549610E+05 -0.5048928E+04  0.6246850E-02  0.8300760E-04 -0.4435968E+05  0.3514861E+04
  0.9900001E+01  0.8549610E+05 -0.4159909E+04  0.6246850E-02  0.4149793E-03 -0.4435968E+05  0.2821731E+04
  0.1000000E+02  0.8549610E+05 -0.3223200E+04  0.6246850E-02  0.7228552E-03 -0.4435968E+05  0.2103410E+04
  0.1010000E+02  0.8549610E+05 -0.2270382E+04  0.6246850E-02  0.9990638E-03 -0.4435968E+05  0.1389026E+04
  0.1020000E+02  0.8549610E+05 -0.1331094E+04  0.6246850E-02  0.1237761E-02 -0.4435968E+05  0.7046145E+03
  0.1030000E+02  0.8549610E+05 -0.4317937E+03  0.6246850E-02  0.1435194E-02 -0.4435968E+05  0.7176590E+02
  0.1040000E+02  0.8549610E+05  0.4044878E+03  0.6246850E-02  0.1589930E-02 -0.4435968E+05 -0.4928344E+03
  0.1050000E+02  0.8549610E+05  0.1158691E+04  0.6246850E-02  0.1702913E-02 -0.4435968E+05 -0.9777914E+03
  0.1060000E+02  0.8549610E+05  0.1816010E+04  0.6246850E-02  0.1777275E-02 -0.4435968E+05 -0.1376967E+04
  0.1070000E+02  0.8549610E+05  0.2366010E+04  0.6246850E-02  0.1818040E-02 -0.4435968E+05 -0.1689073E+04
  0.1080000E+02  0.8549610E+05  0.2802247E+04  0.6246850E-02  0.1831626E-02 -0.4435968E+05 -0.1916802E+04
  0.1090000E+02  0.8549610E+05  0.3122419E+04  0.6246850E-02  0.1825257E-02 -0.4435968E+05 -0.2066141E+04
  0.1100000E+02  0.8549610E+05  0.3327801E+04  0.6246850E-02  0.1806278E-02 -0.4435968E+05 -0.2145235E+04
  0.1110000E+02  0.8549610E+05  0.3422734E+04  0.6246850E-02  0.1781502E-02 -0.4435968E+05 -0.2163312E+04
  0.1120000E+02  0.8549610E+05  0.3414299E+04  0.6246850E-02  0.1756561E-02 -0.4435968E+05 -0.2129856E+04
  0.1130000E+02  0.8549610E+05  0.3311865E+04  0.6246850E-02  0.1735373E-02 -0.4435968E+05 -0.2053832E+04
  0.1140000E+02  0.8549610E+05  0.3126318E+04  0.6246850E-02  0.1719764E-02 -0.4435968E+05 -0.1942998E+04
  0.1150000E+02  0.8549610E+05  0.2869807E+04  0.6246850E-02  0.1709277E-02 -0.4435968E+05 -0.1803724E+04
  0.1160000E+02  0.8549610E+05  0.2555197E+04  0.6246850E-02  0.1701146E-02 -0.4435968E+05 -0.1640868E+04
  0.1170000E+02  0.8549610E+05  0.2195659E+04  0.6246850E-02  0.1690540E-02 -0.4435968E+05 -0.1457937E+04
  0.1180000E+02  0.8549610E+05  0.1804374E+04  0.6246850E-02  0.1670951E-02 -0.4435968E+05 -0.1257479E+04
  0.1190000E+02  0.8549610E+05  0.1394156E+04  0.6246850E-02  0.1634763E-02 -0.4435968E+05 -0.1041482E+04
  0.1200000E+02  0.8549610E+05  0.9772842E+03  0.6246850E-02  0.1573949E-02 -0.4435968E+05 -0.8119590E+03
  0.1210000E+02  0.8549610E+05  0.5652640E+03  0.6246850E-02  0.1480789E-02 -0.4435968E+05 -0.5714069E+03
  0.1220000E+02  0.8549610E+05  0.1685565E+03  0.6246850E-02  0.1348638E-02 -0.4435968E+05 -0.3231454E+03
  0.1230000E+02  0.8549610E+05 -0.2033930E+03  0.6246850E-02  0.1172582E-02 -0.4435968E+05 -0.7168370E+02
  0.1240000E+02  0.8549610E+05 -0.5423873E+03  0.6246850E-02  0.9499587E-03 -0.4435968E+05  0.1772856E+03
  0.1250000E+02  0.8549610E+05 -0.8414897E+03  0.6246850E-02  0.6807782E-03 -0.4435968E+05  0.4169525E+03
  0.1260000E+02  0.8549610E+05 -0.1095387E+04  0.6246850E-02  0.3678495E-03 -0.4435968E+05  0.6398542E+03
  0.1270000E+02  0.8549610E+05 -0.1299896E+04  0.6246850E-02  0.1671542E-04 -0.4435968E+05  0.8380164E+03
  0.1280000E+02  0.8549610E+05 -0.1452639E+04  0.6246850E-02 -0.3645979E-03 -0.4435968E+05  0.1003903E+04
  0.1290000E+02  0.8549610E+05 -0.1552554E+04  0.6246850E-02 -0.7660554E-03 -0.4435968E+05  0.1130714E+04
  0.1300000E+02  0.8549610E+05 -0.1600328E+04  0.6246850E-02 -0.1176211E-02 -0.4435968E+05  0.1213273E+04
  0.1310000E+02  0.8549610E+05 -0.1597853E+04  0.6246850E-02 -0.1582971E-02 -0.4435968E+05  0.1248226E+04
  0.1320000E+02  0.8549610E+05 -0.1548547E+04  0.6246850E-02 -0.1974243E-02 -0.4435968E+05  0.1234689E+04
  0.1330000E+02  0.8549610E+05 -0.1457000E+04  0.6246850E-02 -0.2338689E-02 -0.4435968E+05  0.1174306E+04
  0.1340000E+02  0.8549610E+05 -0.1328866E+04  0.6246850E-02 -0.2666294E-02 -0.4435968E+05  0.1071264E+04
  0.1350000E+02  0.8549610E+05 -0.1170643E+04  0.6246850E-02 -0.2948802E-02 -0.4435968E+05  0.9320814E+03
  0.1360000E+02  0.8549610E+05 -0.9893854E+03  0.6246850E-02 -0.3179975E-02 -0.4435968E+05  0.7651635E+03
  0.1370000E+02  0.8549610E+05 -0.7924042E+03  0.6246850E-02 -0.3355635E-02 -0.4435968E+05  0.5802009E+03
  0.1380000E+02  0.8549610E+05 -0.5872288E+03  0.6246850E-02 -0.3473490E-02 -0.4435968E+05  0.3876276E+03
  0.1390000E+02  0.8549610E+05 -0.3809737E+03  0.6246850E-02 -0.3532830E-02 -0.4435968E+05  0.1976690E+03
  0.1400000E+02  0.8549610E+05 -0.1803448E+03  0.6246850E-02 -0.3534061E-02 -0.4435968E+05  0.1980043E+02
  0.1410000E+02  0.8549610E+05  0.8731665E+01  0.6246850E-02 -0.3478175E-02 -0.4435968E+05 -0.1379929E+03
  0.1420000E+02  0.8549610E+05  0.1811560E+03  0.6246850E-02 -0.3366249E-02 -0.4435968E+05 -0.2696333E+03
  0.1430000E+02  0.8549610E+05  0.3328682E+03  0.6246850E-02 -0.3198964E-02 -0.4435968E+05 -0.3713075E+03
  0.1440000E+02  0.8549610E+05  0.4609450E+03  0.6246850E-02 -0.2976371E-02 -0.4435968E+05 -0.4416066E+03
  0.1450000E+02  0.8549610E+05  0.5635818E+03  0.6246850E-02 -0.2697701E-02 -0.4435968E+05 -0.4814290E+03
  0.1460000E+02  0.8549610E+05  0.6399265E+03  0.6246850E-02 -0.2361522E-02 -0.4435968E+05 -0.4936092E+03
  0.1470000E+02  0.8549610E+05  0.6903937E+03  0.6246850E-02 -0.1966089E-02 -0.4435968E+05 -0.4827280E+03
  0.1480000E+02  0.8549610E+05  0.7159897E+03  0.6246850E-02 -0.1509872E-02 -0.4435968E+05 -0.4542795E+03
  0.1490000E+02  0.8549610E+05  0.7185956E+03  0.6246850E-02 -0.9923133E-03 -0.4435968E+05 -0.4142752E+03
  0.1500000E+02  0.8549610E+05  0.7005259E+03  0.6246850E-02 -0.4146706E-03 -0.4435968E+05 -0.3685253E+03
  0.1510000E+02  0.8549610E+05  0.6646314E+03  0.6246850E-02  0.2191716E-03 -0.4435968E+05 -0.3222635E+03
  0.1520000E+02  0.8549610E+05  0.6137454E+03  0.6246850E-02  0.9018696E-03 -0.4435968E+05 -0.2794799E+03
  0.1530000E+02  0.8549610E+05  0.5509604E+03  0.6246850E-02  0.1622069E-02 -0.4435968E+05 -0.2428941E+03
  0.1540000E+02  0.8549610E+05  0.4790684E+03  0.6246850E-02  0.2364038E-02 -0.4435968E+05 -0.2135792E+03
  0.1550000E+02  0.8549610E+05  0.4010312E+03  0.6246850E-02  0.3107649E-02 -0.4435968E+05 -0.1913598E+03
  0.1560000E+02  0.8549610E+05  0.3193204E+03  0.6246850E-02  0.3828832E-02 -0.4435968E+05 -0.1746147E+03
  0.1570000E+02  0.8549610E+05  0.2361357E+03  0.6246850E-02  0.4500316E-02 -0.4435968E+05 -0.1608343E+03
  0.1580000E+02  0.8549610E+05  0.1536535E+03  0.6246850E-02  0.5092790E-02 -0.4435968E+05 -0.1471268E+03
  0.1590000E+02  0.8549610E+05  0.7353545E+02  0.6246850E-02  0.5576468E-02 -0.4435968E+05 -0.1303883E+03
Zone t="DoF    2",I=   160,F=POINT
  0.0000000E+00  0.7836222E-02 -0.3355011E-02  0.9160191E+05  0.1456572E+06 -0.3543648E-02 -0.9264298E-02
  0.1000000E+00  0.7836222E-02 -0.3105858E-02  0.9160191E+05  0.1433604E+06 -0.3543648E-02 -0.9044212E-02
  0.2000000E+00  0.7836222E-02 -0.2383042E-02  0.9160191E+05  0.1365565E+06 -0.3543648E-02 -0.8398833E-02
  0.3000000E+00  0.7836222E-02 -0.1258258E-02  0.9160191E+05  0.1255013E+06 -0.3543648E-02 -0.7371545E-02
  0.4000000E+00  0.7836222E-02  0.1562181E-03  0.9160191E+05  0.1106084E+06 -0.3543648E-02 -0.6030667E-02
  0.5000000E+00  0.7836222E-02  0.1717694E-02  0.9160191E+05  0.9243153E+05 -0.3543648E-02 -0.4463829E-02
  0.6000000E+00  0.7836222E-02  0.3266018E-02  0.9160191E+05  0.7164052E+05 -0.3543648E-02 -0.2770836E-02
  0.7000000E+00  0.7836222E-02  0.4638156E-02  0.9160191E+05  0.4899242E+05 -0.3543648E-02 -0.1055654E-02
  0.8000000E+00  0.7836222E-02  0.5683166E-02  0.9160191E+05  0.2529943E+05 -0.3543648E-02  0.5817764E-03
  0.9000000E+00  0.7836222E-02  0.6276165E-02  0.9160191E+05  0.1395139E+04 -0.3543648E-02  0.2053156E-02
  0.1000000E+01  0.7836222E-02  0.6330136E-02  0.9160191E+05 -0.2189976E+05 -0.3543648E-02  0.3288225E-02
  0.1100000E+01  0.7836222E-02  0.5804460E-02  0.9160191E+05 -0.4381015E+05 -0.3543648E-02  0.4239385E-02
  0.1200000E+01  0.7836222E-02  0.4709467E-02  0.9160191E+05 -0.6363633E+05 -0.3543648E-02  0.4884183E-02
  0.1300000E+01  0.7836222E-02  0.3106539E-02  0.9160191E+05 -0.8077971E+05 -0.3543648E-02  0.5225467E-02
  0.1400000E+01  0.7836222E-02  0.1103792E-02  0.9160191E+05 -0.9476328E+05 -0.3543648E-02  0.5289295E-02
  0.1500000E+01  0.7836222E-02 -0.1152367E-02  0.9160191E+05 -0.1052460E+06 -0.3543648E-02  0.5120819E-02
  0.1600000E+01  0.7836222E-02 -0.3489021E-02  0.9160191E+05 -0.1120310E+06 -0.3543648E-02  0.4778610E-02
  0.1700000E+01  0.7836222E-02 -0.5720937E-02  0.9160191E+05 -0.1150664E+06 -0.3543648E-02  0.4328009E-02
  0.1800000E+01  0.7836222E-02 -0.7665905E-02  0.9160191E+05 -0.1144412E+06 -0.3543648E-02  0.3834144E-02
  0.1900000E+01  0.7836222E-02 -0.9159954E-02  0.9160191E+05 -0.1103739E+06 -0.3543648E-02  0.3355327E-02
  0.2000000E+01  0.7836222E-02 -0.1007113E-01  0.9160191E+05 -0.1031968E+06 -0.3543648E-02  0.2937453E-02
  0.2100000E+01  0.7836222E-02 -0.1031065E-01  0.9160191E+05 -0.9333627E+05 -0.3543648E-02  0.2609927E-02
  0.2200000E+01  0.7836222E-02 -0.9840593E-02  0.9160191E+05 -0.8129000E+05 -0.3543648E-02  0.2383498E-02
  0.2300000E+01  0.7836222E-02 -0.8677358E-02  0.9160191E+05 -0.6760248E+05 -0.3543648E-02  0.2250158E-02
  0.2400000E+01  0.7836222E-02 -0.6890679E-02  0.9160191E+05 -0.5284011E+05 -0.3543648E-02  0.2185114E-02
  0.2500000E+01  0.7836222E-02 -0.4598343E-02  0.9160191E+05 -0.3756730E+05 -0.3543648E-02  0.2150539E-02
  0.2600000E+01  0.7836222E-02 -0.1956952E-02  0.9160191E+05 -0.2232396E+05 -0.3543648E-02  0.2100757E-02
  0.2700000E+01  0.7836222E-02  0.8503050E-03  0.9160191E+05 -0.7606219E+04 -0.3543648E-02  0.1988252E-02
  0.2800000E+01  0.7836222E-02  0.3628036E-02  0.9160191E+05  0.6149850E+04 -0.3543648E-02  0.1769910E-02
  0.2900000E+01  0.7836222E-02  0.6183804E-02  0.9160191E+05  0.1858036E+05 -0.3543648E-02  0.1412821E-02
  0.3000000E+01  0.7836222E-02  0.8342871E-02  0.9160191E+05  0.2940138E+05 -0.3543648E-02  0.8990388E-03
  0.3100000E+01  0.7836222E-02  0.9961397E-02  0.9160191E+05  0.3841310E+05 -0.3543648E-02  0.2287943E-03
  0.3200000E+01  0.7836222E-02  0.1093688E-01  0.9160191E+05  0.4549926E+05 -0.3543648E-02 -0.5781745E-03
  0.3300000E+01  0.7836222E-02  0.1121521E-01  0.9160191E+05  0.5062359E+05 -0.3543648E-02 -0.1483374E-02
  0.3400000E+01  0.7836222E-02  0.1079365E-01  0.9160191E+05  0.5382275E+05 -0.3543648E-02 -0.2432292E-02
  0.3500000E+01  0.7836222E-02  0.9719751E-02  0.9160191E+05  0.5519714E+05 -0.3543648E-02 -0.3358916E-02
  0.3600000E+01  0.7836222E-02  0.8086273E-02  0.9160191E+05  0.5489969E+05 -0.3543648E-02 -0.4191605E-02
  0.3700000E+01  0.7836222E-02  0.6022666E-02  0.9160191E+05  0.5312388E+05 -0.3543648E-02 -0.4859744E-02
  0.3800000E+01  0.7836222E-02  0.3683904E-02  0.9160191E+05  0.5009123E+05 -0.3543648E-02 -0.5300549E-02
  0.3900000E+01  0.7836222E-02  0.1237648E-02  0.9160191E+05  0.4603928E+05 -0.3543648E-02 -0.5465377E-02
  0.4000000E+01  0.7836222E-02 -0.1149100E-02  0.9160191E+05  0.4121027E+05 -0.3543648E-02 -0.5324882E-02
  0.4100000E+01  0.7836222E-02 -0.3322868E-02  0.9160191E+05  0.3584122E+05 -0.3543648E-02 -0.4872541E-02
  0.4200000E+01  0.7836222E-02 -0.5154896E-02  0.9160191E+05  0.3015554E+05 -0.3543648E-02 -0.4126164E-02
  0.4300000E+01  0.7836222E-02 -0.6549839E-02  0.9160191E+05  0.2435661E+05 -0.3543648E-02 -0.3127235E-02
  0.4400000E+01  0.7836222E-02 -0.7451450E-02  0.9160191E+05  0.1862288E+05 -0.3543648E-02 -0.1938056E-02
  0.4500000E+01  0.7836222E-02 -0.7844698E-02  0.9160191E+05  0.1310512E+05 -0.3543648E-02 -0.6370161E-03
  0.4600000E+01  0.7836222E-02 -0.7754412E-02  0.9160191E+05  0.7925186E+04 -0.3543648E-02  0.6876795E-03
  0.4700000E+01  0.7836222E-02 -0.7240691E-02  0.9160191E+05  0.3176269E+04 -0.3543648E-02  0.1945214E-02
  0.4800000E+01  0.7836222E-02 -0.6391597E-02  0.9160191E+05 -0.1075662E+04 -0.3543648E-02  0.3049645E-02
  0.4900000E+01  0.7836222E-02 -0.5313827E-02  0.9160191E+05 -0.4789421E+04 -0.3543648E-02  0.3927054E-02
  0.5000000E+01  0.7836222E-02 -0.4122328E-02  0.9160191E+05 -0.7945764E+04 -0.3543648E-02  0.4521627E-02
  0.5100000E+01  0.7836222E-02 -0.2929753E-02  0.9160191E+05 -0.1054386E+05 -0.3543648E-02  0.4800159E-02
  0.5200000E+01  0.7836222E-02 -0.1836693E-02  0.9160191E+05 -0.1259798E+05 -0.3543648E-02  0.4754591E-02
  0.5300000E+01  0.7836222E-02 -0.9235047E-03  0.9160191E+05 -0.1413400E+05 -0.3543648E-02  0.4402318E-02
  0.5400000E+01  0.7836222E-02 -0.2443649E-03  0.9160191E+05 -0.1518656E+05 -0.3543648E-02  0.3784280E-02
  0.5500000E+01  0.7836222E-02  0.1759665E-03  0.9160191E+05 -0.1579614E+05 -0.3543648E-02  0.2961011E-02
  0.5600000E+01  0.7836222E-02  0.3425934E-03  0.9160191E+05 -0.1600688E+05 -0.3543648E-02  0.2006999E-02
  0.5700000E+01  0.7836222E-02  0.2881181E-03  0.9160191E+05 -0.1586475E+05 -0.3543648E-02  0.1003929E-02
  0.5800000E+01  0.7836222E-02  0.6788634E-04  0.9160191E+05 -0.1541608E+05 -0.3543648E-02  0.3339374E-04
  0.5900000E+01  0.7836222E-02 -0.2466829E-03  0.9160191E+05 -0.1470663E+05 -0.3543648E-02 -0.8302669E-03
  0.6000000E+01  0.7836222E-02 -0.5760068E-03  0.9160191E+05 -0.1378076E+05 -0.3543648E-02 -0.1526303E-02
  0.6100000E+01  0.7836222E-02 -0.8406795E-03  0.9160191E+05 -0.1268105E+05 -0.3543648E-02 -0.2012538E-02
  0.6200000E+01  0.7836222E-02 -0.9695378E-03  0.9160191E+05 -0.1144789E+05 -0.3543648E-02 -0.2268539E-02
  0.6300000E+01  0.7836222E-02 -0.9066542E-03  0.9160191E+05 -0.1011938E+05 -0.3543648E-02 -0.2296726E-02
  0.6400000E+01  0.7836222E-02 -0.6167652E-03  0.9160191E+05 -0.8731199E+04 -0.3543648E-02 -0.2121336E-02
  0.6500000E+01  0.7836222E-02 -0.8855908E-04  0.9160191E+05 -0.7316199E+04 -0.3543648E-02 -0.1785368E-02
  0.6600000E+01  0.7836222E-02  0.6642273E-03  0.9160191E+05 -0.5904633E+04 -0.3543648E-02 -0.1345829E-02
  0.6700000E+01  0.7836222E-02  0.1604088E-02  0.9160191E+05 -0.4523753E+04 -0.3543648E-02 -0.8677408E-03
  0.6800000E+01  0.7836222E-02  0.2673094E-02  0.9160191E+05 -0.3197657E+04 -0.3543648E-02 -0.4175098E-03
  0.6900000E+01  0.7836222E-02  0.3798026E-02  0.9160191E+05 -0.1947213E+04 -0.3543648E-02 -0.5624478E-04
  0.7000000E+01  0.7836222E-02  0.4896732E-02  0.9160191E+05 -0.7898489E+03 -0.3543648E-02  0.1663091E-03
  0.7100000E+01  0.7836222E-02  0.5885107E-02  0.9160191E+05  0.2605292E+03 -0.3543648E-02  0.2166615E-03
  0.7200000E+01  0.7836222E-02  0.6684138E-02  0.9160191E+05  0.1193574E+04 -0.3543648E-02  0.8087289E-04
  0.7300000E+01  0.7836222E-02  0.7226304E-02  0.9160191E+05  0.2002472E+04 -0.3543648E-02 -0.2340668E-03
  0.7400000E+01  0.7836222E-02  0.7460915E-02  0.9160191E+05  0.2683671E+04 -0.3543648E-02 -0.7008902E-03
  0.7500000E+01  0.7836222E-02  0.7357907E-02  0.9160191E+05  0.3236887E+04 -0.3543648E-02 -0.1274608E-02
  0.7600000E+01  0.7836222E-02  0.6909868E-02  0.9160191E+05  0.3664608E+04 -0.3543648E-02 -0.1896804E-02
  0.7700000E+01  0.7836222E-02  0.6132186E-02  0.9160191E+05  0.3971834E+04 -0.3543648E-02 -0.2501158E-02
  0.7800000E+01  0.7836222E-02  0.5061481E-02  0.9160191E+05  0.4165576E+04 -0.3543648E-02 -0.3019731E-02
  0.7900000E+01  0.7836222E-02  0.3752365E-02  0.9160191E+05  0.4254531E+04 -0.3543648E-02 -0.3389418E-02
  0.8000000E+01  0.7836222E-02  0.2273115E-02  0.9160191E+05  0.4248528E+04 -0.3543648E-02 -0.3557975E-02
  0.8100000E+01  0.7836222E-02  0.7004272E-03  0.9160191E+05  0.4158253E+04 -0.3543648E-02 -0.3489024E-02
  0.8200000E+01  0.7836222E-02 -0.8859943E-03  0.9160191E+05  0.3994745E+04 -0.3543648E-02 -0.3165657E-02
  0.8300000E+01  0.7836222E-02 -0.2408899E-02  0.9160191E+05  0.3769185E+04 -0.3543648E-02 -0.2592257E-02
  0.8400001E+01  0.7836222E-02 -0.3798184E-02  0.9160191E+05  0.3492512E+04 -0.3543648E-02 -0.1794446E-02
  0.8500000E+01  0.7836222E-02 -0.4994861E-02  0.9160191E+05  0.3175408E+04 -0.3543648E-02 -0.8171352E-03
  0.8600000E+01  0.7836222E-02 -0.5953844E-02  0.9160191E+05  0.2827988E+04 -0.3543648E-02  0.2791604E-03
  0.8700000E+01  0.7836222E-02 -0.6645457E-02  0.9160191E+05  0.2459791E+04 -0.3543648E-02  0.1423224E-02
  0.8800000E+01  0.7836222E-02 -0.7055785E-02  0.9160191E+05  0.2079672E+04 -0.3543648E-02  0.2539092E-02
  0.8900001E+01  0.7836222E-02 -0.7185861E-02  0.9160191E+05  0.1695969E+04 -0.3543648E-02  0.3552186E-02
  0.9000000E+01  0.7836222E-02 -0.7049922E-02  0.9160191E+05  0.1316086E+04 -0.3543648E-02  0.4395403E-02
  0.9100000E+01  0.7836222E-02 -0.6673060E-02  0.9160191E+05  0.9470027E+03 -0.3543648E-02  0.5014388E-02
  0.9200000E+01  0.7836222E-02 -0.6088477E-02  0.9160191E+05  0.5948125E+03 -0.3543648E-02  0.5371658E-02
  0.9300000E+01  0.7836222E-02 -0.5334574E-02  0.9160191E+05  0.2649712E+03 -0.3543648E-02  0.5449254E-02
  0.9400001E+01  0.7836222E-02 -0.4452374E-02  0.9160191E+05 -0.3784039E+02 -0.3543648E-02  0.5249664E-02
  0.9500000E+01  0.7836222E-02 -0.3483131E-02  0.9160191E+05 -0.3097643E+03 -0.3543648E-02  0.4795059E-02
  0.9600000E+01  0.7836222E-02 -0.2466552E-02  0.9160191E+05 -0.5478298E+03 -0.3543648E-02  0.4124885E-02
  0.9700000E+01  0.7836222E-02 -0.1439523E-02  0.9160191E+05 -0.7499039E+03 -0.3543648E-02  0.3292156E-02
  0.9800000E+01  0.7836222E-02 -0.4353476E-03  0.9160191E+05 -0.9148704E+03 -0.3543648E-02  0.2358691E-02
  0.9900001E+01  0.7836222E-02  0.5165351E-03  0.9160191E+05 -0.1042402E+04 -0.3543648E-02  0.1389923E-02
  0.1000000E+02  0.7836222E-02  0.1390518E-02  0.9160191E+05 -0.1133293E+04 -0.3543648E-02  0.4495564E-03
  0.1010000E+02  0.7836222E-02  0.2164678E-02  0.9160191E+05 -0.1189022E+04 -0.3543648E-02 -0.4053614E-03
  0.1020000E+02  0.7836222E-02  0.2820497E-02  0.9160191E+05 -0.1212037E+04 -0.3543648E-02 -0.1128488E-02
  0.1030000E+02  0.7836222E-02  0.3342832E-02  0.9160191E+05 -0.1205284E+04 -0.3543648E-02 -0.1687229E-02
  0.1040000E+02  0.7836222E-02  0.3719940E-02  0.9160191E+05 -0.1172341E+04 -0.3543648E-02 -0.2064336E-02
  0.1050000E+02  0.7836222E-02  0.3943804E-02  0.9160191E+05 -0.1117095E+04 -0.3543648E-02 -0.2258180E-02
  0.1060000E+02  0.7836222E-02  0.4010683E-02  0.9160191E+05 -0.1043686E+04 -0.3543648E-02 -0.2281658E-02
  0.1070000E+02  0.7836222E-02  0.3921738E-02  0.9160191E+05 -0.9561432E+03 -0.3543648E-02 -0.2159931E-02
  0.1080000E+02  0.7836222E-02  0.3683694E-02  0.9160191E+05 -0.8585398E+03 -0.3543648E-02 -0.1927230E-02
  0.1090000E+02  0.7836222E-02  0.3309412E-02  0.9160191E+05 -0.7544890E+03 -0.3543648E-02 -0.1623178E-02
  0.1100000E+02  0.7836222E-02  0.2818119E-02  0.9160191E+05 -0.6472604E+03 -0.3543648E-02 -0.1288845E-02
  0.1110000E+02  0.7836222E-02  0.2235255E-02  0.9160191E+05 -0.5397462E+03 -0.3543648E-02 -0.9629998E-03
  0.1120000E+02  0.7836222E-02  0.1591810E-02  0.9160191E+05 -0.4343140E+03 -0.3543648E-02 -0.6789207E-03
  0.1130000E+02  0.7836222E-02  0.9230812E-03  0.9160191E+05 -0.3327011E+03 -0.3543648E-02 -0.4618744E-03
  0.1140000E+02  0.7836222E-02  0.2668672E-03  0.9160191E+05 -0.2363567E+03 -0.3543648E-02 -0.3276286E-03
  0.1150000E+02  0.7836222E-02 -0.3387565E-03  0.9160191E+05 -0.1462172E+03 -0.3543648E-02 -0.2818883E-03
  0.1160000E+02  0.7836222E-02 -0.8580759E-03  0.9160191E+05 -0.6293144E+02 -0.3543648E-02 -0.3207822E-03
  0.1170000E+02  0.7836222E-02 -0.1260319E-02  0.9160191E+05  0.1310555E+02 -0.3543648E-02 -0.4321276E-03