VARIABLES="w (rad/s)"
"A   1   1" "B   1   1"
"A   1   2" "B   1   2"
"A   1   3" "B   1   3"
Zone t="Motion of body    1 in DoF   1",I=    32,F=POINT
  0.1000000E+00  0.2014948E+04  0.9724906E-06  0.1118332E-02  0.4109408E-06  0.8105321E+04  0.4237598E-05
  0.2000000E+00  0.2017273E+04  0.1701264E-03  0.9176880E-03  0.2973337E-05  0.8115405E+04  0.7122712E-03
  0.3000000E+00  0.2024455E+04  0.2901304E-02 -0.1055449E-02 -0.9644157E-05  0.8138295E+04  0.1210434E-01
  0.4000000E+00  0.2032343E+04  0.2151087E-01  0.1782924E-03  0.5507738E-05  0.8174034E+04  0.8979511E-01
  0.5000000E+00  0.2039201E+04  0.1011894E+00 -0.9252429E-03 -0.4226868E-04  0.8202823E+04  0.4225756E+00
  0.6000001E+00  0.2046708E+04  0.3566633E+00 -0.4501143E-03 -0.5443382E-04  0.8233462E+04  0.1490126E+01
  0.7000000E+00  0.2062260E+04  0.1029289E+01  0.4246405E-03  0.3900488E-04  0.8301494E+04  0.4303260E+01
  0.8000001E+00  0.2074647E+04  0.2560838E+01 -0.2805516E-02 -0.5697068E-03  0.8355103E+04  0.1071414E+02
  0.9000000E+00  0.2094171E+04  0.5689417E+01 -0.4206962E-02 -0.1112941E-02  0.8437860E+04  0.2382238E+02
  0.1000000E+01  0.2114039E+04  0.1153904E+02 -0.5686879E-03 -0.2035561E-03  0.8523478E+04  0.4835842E+02
  0.1100000E+01  0.2139925E+04  0.2173126E+02  0.2331083E-03  0.1416355E-04  0.8634513E+04  0.9116199E+02
  0.1200000E+01  0.2165203E+04  0.3843199E+02  0.2640386E-02  0.1066595E-02  0.8741685E+04  0.1613816E+03
  0.1300000E+01  0.2196831E+04  0.6439066E+02 -0.5942125E-03 -0.5529793E-03  0.8879569E+04  0.2706949E+03
  0.1400000E+01  0.2230054E+04  0.1029342E+03 -0.1041463E-02 -0.9540152E-03  0.9021405E+04  0.4332409E+03
  0.1500000E+01  0.2261752E+04  0.1576803E+03  0.7936160E-03  0.5439315E-03  0.9157499E+04  0.6644604E+03
  0.1600000E+01  0.2293933E+04  0.2322160E+03  0.2346933E-04 -0.2350360E-03  0.9297854E+04  0.9797891E+03
  0.1700000E+01  0.2324869E+04  0.3299730E+03 -0.1049252E-02 -0.1190122E-02  0.9433349E+04  0.1394177E+04
  0.1800000E+01  0.2348587E+04  0.4536310E+03 -0.5075004E-03 -0.7578805E-03  0.9536474E+04  0.1919419E+04
  0.1900000E+01  0.2362118E+04  0.6040055E+03  0.5841255E-04 -0.5238950E-03  0.9597643E+04  0.2559430E+04
  0.2000000E+01  0.2366385E+04  0.7798594E+03  0.9000301E-05  0.2751350E-03  0.9620843E+04  0.3309622E+04
  0.2100000E+01  0.2360074E+04  0.9778840E+03  0.5677201E-03  0.1193345E-02  0.9598748E+04  0.4156420E+04
  0.2200000E+01  0.2341027E+04  0.1192942E+04  0.3386086E-03  0.1149625E-02  0.9522938E+04  0.5078504E+04
  0.2300000E+01  0.2310531E+04  0.1417693E+04 -0.8500141E-05 -0.1472935E-02  0.9398391E+04  0.6044958E+04
  0.2400000E+01  0.2268879E+04  0.1644895E+04 -0.5192061E-03 -0.7049143E-03  0.9224929E+04  0.7025056E+04
  0.2500000E+01  0.2216479E+04  0.1867674E+04 -0.2824783E-03 -0.4930496E-03  0.9005850E+04  0.7989607E+04
  0.2600000E+01  0.2157366E+04  0.2078770E+04  0.4382317E-03  0.1026660E-02  0.8756774E+04  0.8907202E+04
  0.2700000E+01  0.2093003E+04  0.2272844E+04  0.2719738E-04 -0.1314789E-02  0.8485025E+04  0.9755033E+04
  0.2800000E+01  0.2025922E+04  0.2447551E+04  0.3394910E-03  0.9265840E-03  0.8199885E+04  0.1052234E+05
  0.2900000E+01  0.1957428E+04  0.2600842E+04 -0.5952243E-04 -0.1306355E-02  0.7908600E+04  0.1120009E+05
  0.3000000E+01  0.1890497E+04  0.2731957E+04 -0.3092289E-03 -0.8656979E-03  0.7622354E+04  0.1178419E+05
  0.3100000E+01  0.1825255E+04  0.2840436E+04 -0.9013760E-04 -0.7403195E-03  0.7343261E+04  0.1227276E+05
  0.3200000E+01  0.1763823E+04  0.2928690E+04 -0.1271069E-03 -0.6271303E-03  0.7078684E+04  0.1267510E+05
Zone t="Motion of body    1 in DoF   2",I=    32,F=POINT
  0.1000000E+00  0.4607439E-03  0.5494803E-07  0.1214553E+05  0.5364313E+01  0.1361370E-02  0.1257285E-07
  0.2000000E+00  0.2747774E-03 -0.1853332E-06  0.1230991E+05  0.4247222E+02  0.1814961E-02 -0.4224479E-05
  0.3000000E+00  0.4728635E-04 -0.1698732E-05  0.1249559E+05  0.1408318E+03 -0.1003742E-02 -0.7554889E-05
  0.4000000E+00  0.6729364E-03  0.3561378E-05  0.1265976E+05  0.3254618E+03  0.1905560E-02 -0.1274049E-04
  0.5000000E+00  0.1559258E-03 -0.4321337E-05  0.1277469E+05  0.6148226E+03  0.5965233E-03 -0.3489852E-04
  0.6000001E+00 -0.4013379E-04 -0.1326203E-04  0.1282433E+05  0.1019241E+04  0.3472964E-03 -0.6633997E-04
  0.7000000E+00  0.1774515E-03 -0.1162291E-04  0.1279884E+05  0.1540171E+04  0.1233646E-02 -0.1209974E-03
  0.8000001E+00 -0.5909800E-03  0.4243851E-04  0.1270069E+05  0.2170201E+04 -0.2477169E-02  0.1201630E-03
  0.9000000E+00 -0.7009506E-03 -0.5441904E-04  0.1251822E+05  0.2894823E+04 -0.3871918E-02  0.2539158E-04
  0.1000000E+01  0.3256798E-03  0.2992153E-04  0.1226890E+05  0.3693451E+04  0.9622574E-03  0.2837181E-04
  0.1100000E+01  0.4237348E-03  0.1295805E-03  0.1194922E+05  0.4543824E+04  0.1308701E-02  0.2474785E-03
  0.1200000E+01  0.1000166E-02  0.1267195E-03  0.1158827E+05  0.5419423E+04  0.3658136E-02  0.4251003E-03
  0.1300000E+01 -0.9353345E-04  0.1208782E-03  0.1118404E+05  0.6300503E+04 -0.3066430E-03  0.9198189E-03
  0.1400000E+01 -0.2452305E-04 -0.7081032E-04  0.1075496E+05  0.7164446E+04 -0.1008170E-03 -0.4458427E-04
  0.1500000E+01 -0.1080831E-04 -0.4410744E-04  0.1031871E+05  0.7991912E+04 -0.5779266E-03 -0.3576279E-04
  0.1600000E+01  0.6437302E-04  0.1308918E-03  0.9876121E+04  0.8775145E+04 -0.5662441E-04 -0.4553795E-03
  0.1700000E+01 -0.2695532E-03  0.2646446E-03  0.9438037E+04  0.9502512E+04 -0.2036375E-02  0.4496574E-03
  0.1800000E+01 -0.1242426E-03 -0.4267693E-04  0.9015173E+04  0.1016160E+05 -0.6516775E-03  0.1196861E-03
  0.1900000E+01  0.1392866E-03  0.2183914E-03  0.8610412E+04  0.1075244E+05 -0.4683043E-03  0.9546280E-03
  0.2000000E+01  0.1449585E-03 -0.1375675E-03  0.8227030E+04  0.1127315E+05 -0.1425743E-03 -0.4868507E-03
  0.2100000E+01  0.4741124E-03  0.1230240E-03  0.7866135E+04  0.1172532E+05  0.1337869E-02  0.1027107E-02
  0.2200000E+01  0.5388260E-03  0.4091263E-03  0.7527741E+04  0.1211511E+05  0.2219027E-02  0.2125740E-02
  0.2300000E+01 -0.4384829E-03  0.3218651E-04  0.7213433E+04  0.1244069E+05 -0.1110409E-02  0.1811981E-04
  0.2400000E+01 -0.4013379E-03 -0.5977154E-03  0.6923181E+04  0.1270761E+05 -0.2583663E-02 -0.1439571E-02
  0.2500000E+01 -0.2365112E-03 -0.3526211E-03  0.6655683E+04  0.1292367E+05 -0.1184082E-02 -0.1862049E-02
  0.2600000E+01  0.1131571E-03 -0.1087189E-03  0.6411208E+04  0.1308677E+05  0.4441922E-03  0.5884171E-03
  0.2700000E+01  0.2772720E-04 -0.1301765E-03  0.6188023E+04  0.1320237E+05  0.2355929E-03 -0.9155273E-03
  0.2800000E+01  0.2123628E-03  0.2655983E-03  0.5985736E+04  0.1327759E+05  0.8096014E-03  0.2266884E-02
  0.2900000E+01 -0.2359522E-03 -0.7429123E-03  0.5802205E+04  0.1331696E+05 -0.1538046E-02 -0.3958225E-02
  0.3000000E+01 -0.1649857E-03 -0.1320839E-03  0.5636969E+04  0.1332022E+05 -0.3983180E-03 -0.1206398E-02
  0.3100000E+01 -0.3184042E-04 -0.4277229E-03  0.5487712E+04  0.1329082E+05 -0.1144409E-03 -0.3073692E-02
  0.3200000E+01 -0.1148880E-03 -0.4985332E-03  0.5354673E+04  0.1323296E+05 -0.6285310E-03 -0.2421379E-02
Zone t="Motion of body    1 in DoF   3",I=    32,F=POINT
  0.1000000E+00  0.8089679E+04  0.4339404E-05  0.2118051E-02  0.6228004E-06  0.3317421E+05  0.1898715E-04
  0.2000000E+00  0.8099775E+04  0.7102229E-03  0.3437847E-02  0.1108760E-04  0.3321813E+05  0.2971453E-02
  0.3000000E+00  0.8121490E+04  0.1206623E-01 -0.2853473E-02 -0.3386930E-04  0.3328238E+05  0.5034053E-01
  0.4000000E+00  0.8158525E+04  0.8952287E-01  0.2963543E-02  0.6485776E-04  0.3345211E+05  0.3736987E+00
  0.5000000E+00  0.8187159E+04  0.4213047E+00 -0.1483917E-02 -0.1099265E-03  0.3357213E+05  0.1759396E+01
  0.6000001E+00  0.8216641E+04  0.1485762E+01 -0.1721978E-02 -0.1816292E-03  0.3368989E+05  0.6207437E+01
  0.7000000E+00  0.8284634E+04  0.4290487E+01  0.2895083E-04  0.1605612E-04  0.3398746E+05  0.1793772E+02
  0.8000001E+00  0.8339046E+04  0.1068221E+02 -0.1248330E-01 -0.2431973E-02  0.3422481E+05  0.4469258E+02
  0.9000000E+00  0.8420568E+04  0.2375291E+02 -0.1906355E-01 -0.5271683E-02  0.3456824E+05  0.9945685E+02
  0.1000000E+01  0.8507006E+04  0.4821631E+02 -0.1437902E-02 -0.9533726E-03  0.3494314E+05  0.2020672E+03
  0.1100000E+01  0.8616831E+04  0.9089786E+02  0.1530864E-02  0.7585026E-03  0.3541237E+05  0.3813143E+03
  0.1200000E+01  0.8723901E+04  0.1609242E+03  0.7350643E-02  0.3281418E-02  0.3586689E+05  0.6757429E+03
  0.1300000E+01  0.8862149E+04  0.2699044E+03 -0.1707077E-02 -0.1955088E-02  0.3647080E+05  0.1134662E+04
  0.1400000E+01  0.9002565E+04  0.4320343E+03 -0.2890314E-02 -0.3142163E-02  0.3706808E+05  0.1818401E+04
  0.1500000E+01  0.9138487E+04  0.6626307E+03  0.6306966E-03  0.1864731E-03  0.3765225E+05  0.2792306E+04
  0.1600000E+01  0.9279236E+04  0.9770386E+03 -0.1341105E-04 -0.9549260E-03  0.3826761E+05  0.4122387E+04
  0.1700000E+01  0.9413935E+04  0.1390356E+04 -0.8353065E-03 -0.2969205E-03  0.3885634E+05  0.5874460E+04
  0.1800000E+01  0.9516461E+04  0.1914529E+04 -0.6066429E-03 -0.1315385E-02  0.3930102E+05  0.8100955E+04
  0.1900000E+01  0.9577516E+04  0.2553039E+04  0.5034396E-03 -0.5717576E-03  0.3957637E+05  0.1081842E+05
  0.2000000E+01  0.9601089E+04  0.3301421E+04 -0.6198883E-05 -0.8230805E-03  0.3969916E+05  0.1401097E+05
  0.2100000E+01  0.9579576E+04  0.4146451E+04  0.1326970E-02  0.4135132E-02  0.3962866E+05  0.1762424E+05
  0.2200000E+01  0.9503872E+04  0.5066636E+04  0.1690171E-02  0.1702845E-02  0.3932871E+05  0.2156921E+05
  0.2300000E+01  0.9379725E+04  0.6031163E+04 -0.3910065E-03 -0.2149343E-02  0.3882287E+05  0.2571643E+05
  0.2400000E+01  0.9206992E+04  0.7009796E+04 -0.2150734E-02 -0.5392313E-02  0.3810468E+05  0.2993734E+05
  0.2500000E+01  0.8988338E+04  0.7972587E+04 -0.9517670E-03 -0.2298355E-03  0.3719123E+05  0.3410503E+05
  0.2600000E+01  0.8739889E+04  0.8888729E+04  0.9164443E-03 -0.1427293E-02  0.3614583E+05  0.3808630E+05
  0.2700000E+01  0.8468852E+04  0.9735271E+04 -0.1582393E-03 -0.2413869E-02  0.3500200E+05  0.4178296E+05
  0.2800000E+01  0.8184402E+04  0.1050212E+05  0.9827955E-03  0.7350922E-02  0.3379391E+05  0.4514916E+05
  0.2900000E+01  0.7893515E+04  0.1117875E+05 -0.3270445E-03 -0.6911397E-02  0.3255751E+05  0.4813825E+05
  0.3000000E+01  0.7607669E+04  0.1176257E+05 -0.1278877E-02 -0.4766464E-02  0.3133597E+05  0.5073646E+05
  0.3100000E+01  0.7329208E+04  0.1225045E+05 -0.3147125E-03 -0.6962895E-02  0.3014523E+05  0.5292866E+05
  0.3200000E+01  0.7065258E+04  0.1265356E+05  0.1494586E-03 -0.3942609E-02  0.2900937E+05  0.5476123E+05
