VARIABLES="w (rad/s)"
"abs(F   1   1)" "angle(F   1   1)"
"abs(F   1   2)" "angle(F   1   2)"
"abs(F   1   3)" "angle(F   1   3)"
Zone t="Diffraction force - beta =   0.000 deg",I=    32,F=POINT
  0.1000000E+00  0.1321117E+04 -0.1570796E+01  0.1490834E+04 -0.3141532E+01  0.7147523E+03  0.1570797E+01
  0.2000000E+00  0.5318768E+04 -0.1570781E+01  0.5898104E+04 -0.3141461E+01  0.2890296E+04  0.1570811E+01
  0.3000000E+00  0.1190976E+05 -0.1570634E+01  0.1317333E+05 -0.3141534E+01  0.6514870E+04  0.1570954E+01
  0.4000000E+00  0.2106011E+05 -0.1569929E+01  0.2321127E+05 -0.3141546E+01  0.1162183E+05  0.1571640E+01
  0.5000000E+00  0.3276579E+05 -0.1567698E+01  0.3595539E+05 -0.3140405E+01  0.1828174E+05  0.1573808E+01
  0.6000001E+00  0.4709952E+05 -0.1562242E+01  0.5144430E+05 -0.3135735E+01  0.2661572E+05  0.1579105E+01
  0.7000000E+00  0.6424771E+05 -0.1551079E+01  0.6979906E+05 -0.3123758E+01  0.3681051E+05  0.1589942E+01
  0.8000001E+00  0.8453893E+05 -0.1531021E+01  0.9113373E+05 -0.3099559E+01  0.4916637E+05  0.1609430E+01
  0.9000000E+00  0.1083566E+06 -0.1498292E+01  0.1153600E+06 -0.3057664E+01  0.6397137E+05  0.1641307E+01
  0.1000000E+01  0.1362166E+06 -0.1448653E+01  0.1418657E+06 -0.2992886E+01  0.8162002E+05  0.1689851E+01
  0.1100000E+01  0.1685220E+06 -0.1377297E+01  0.1690580E+06 -0.2901395E+01  0.1023211E+06  0.1760085E+01
  0.1200000E+01  0.2055851E+06 -0.1278520E+01  0.1940434E+06 -0.2782375E+01  0.1263075E+06  0.1858055E+01
  0.1300000E+01  0.2470390E+06 -0.1145961E+01  0.2129651E+06 -0.2639070E+01  0.1529869E+06  0.1990984E+01
  0.1400000E+01  0.2906864E+06 -0.9729674E+00  0.2223442E+06 -0.2479375E+01  0.1807102E+06  0.2166567E+01
  0.1500000E+01  0.3312018E+06 -0.7549839E+00  0.2206426E+06 -0.2313958E+01  0.2056078E+06  0.2391067E+01
  0.1600000E+01  0.3595444E+06 -0.4952817E+00  0.2089458E+06 -0.2152484E+01  0.2214054E+06  0.2663748E+01
  0.1700000E+01  0.3666237E+06 -0.2096372E+00  0.1904297E+06 -0.2000257E+01  0.2223621E+06  0.2972302E+01
  0.1800000E+01  0.3499721E+06  0.7583281E-01  0.1684280E+06 -0.1858212E+01  0.2080511E+06 -0.2989098E+01
  0.1900000E+01  0.3172620E+06  0.3394021E+00  0.1455970E+06 -0.1724248E+01  0.1841760E+06 -0.2670219E+01
  0.2000000E+01  0.2788614E+06  0.5716307E+00  0.1235935E+06 -0.1594903E+01  0.1584516E+06 -0.2358392E+01
  0.2100000E+01  0.2416074E+06  0.7723960E+00  0.1034755E+06 -0.1466411E+01  0.1359482E+06 -0.2052255E+01
  0.2200000E+01  0.2083886E+06  0.9460846E+00  0.8578541E+05 -0.1334794E+01  0.1188677E+06 -0.1750735E+01
  0.2300000E+01  0.1799550E+06  0.1096758E+01  0.7062684E+05 -0.1197771E+01  0.1074921E+06 -0.1461922E+01
  0.2400000E+01  0.1558904E+06  0.1226902E+01  0.5795877E+05 -0.1054928E+01  0.1005565E+06 -0.1199653E+01
  0.2500000E+01  0.1354335E+06  0.1339062E+01  0.4757936E+05 -0.9070966E+00  0.9640988E+05 -0.9709650E+00
  0.2600000E+01  0.1180255E+06  0.1435151E+01  0.3913521E+05 -0.7571439E+00  0.9383743E+05 -0.7777655E+00
  0.2700000E+01  0.1030254E+06  0.1515366E+01  0.3221254E+05 -0.6113455E+00  0.9142641E+05 -0.6197569E+00
  0.2800000E+01  0.9003610E+05  0.1581031E+01  0.2644614E+05 -0.4743161E+00  0.8862365E+05 -0.4905176E+00
  0.2900000E+01  0.7862691E+05  0.1633245E+01  0.2150511E+05 -0.3504596E+00  0.8507509E+05 -0.3823134E+00
  0.3000000E+01  0.6860311E+05  0.1673075E+01  0.1710679E+05 -0.2418257E+00  0.8082802E+05 -0.2913071E+00
  0.3100000E+01  0.5975061E+05  0.1701075E+01  0.1309252E+05 -0.1506088E+00  0.7572021E+05 -0.2153493E+00
  0.3200000E+01  0.5198643E+05  0.1719145E+01  0.9408401E+04 -0.7606633E-01  0.7002555E+05 -0.1507592E+00
