VARIABLES="w (rad/s)"
"abs(F   1   1)" "angle(F   1   1)"
"abs(F   1   2)" "angle(F   1   2)"
"abs(F   1   3)" "angle(F   1   3)"
Zone t="Diffraction force - beta =   0.000 deg",I=    32,F=POINT
  0.1000000E+00  0.2425992E+04 -0.1570796E+01  0.4293765E+06 -0.2243095E-04  0.5324790E+04 -0.1570794E+01
  0.2000000E+00  0.9679362E+04 -0.1570792E+01  0.4218123E+06 -0.3526397E-03  0.2123861E+05 -0.1570792E+01
  0.3000000E+00  0.2161384E+05 -0.1570751E+01  0.4092769E+06 -0.1733243E-02  0.4739440E+05 -0.1570751E+01
  0.4000000E+00  0.3807958E+05 -0.1570552E+01  0.3920845E+06 -0.5255307E-02  0.8341350E+05 -0.1570551E+01
  0.5000000E+00  0.5877325E+05 -0.1569897E+01  0.3708429E+06 -0.1216982E-01  0.1285750E+06 -0.1569897E+01
  0.6000001E+00  0.8336266E+05 -0.1568228E+01  0.3463908E+06 -0.2369043E-01  0.1820790E+06 -0.1568228E+01
  0.7000000E+00  0.1117293E+06 -0.1564649E+01  0.3196843E+06 -0.4083375E-01  0.2435315E+06 -0.1564649E+01
  0.8000001E+00  0.1432610E+06 -0.1557901E+01  0.2916946E+06 -0.6435825E-01  0.3115121E+06 -0.1557900E+01
  0.9000000E+00  0.1773819E+06 -0.1546375E+01  0.2632633E+06 -0.9471189E-01  0.3846132E+06 -0.1546376E+01
  0.1000000E+01  0.2135204E+06 -0.1528393E+01  0.2351277E+06 -0.1321758E+00  0.4614097E+06 -0.1528392E+01
  0.1100000E+01  0.2500567E+06 -0.1502326E+01  0.2078195E+06 -0.1767690E+00  0.5382553E+06 -0.1502330E+01
  0.1200000E+01  0.2843572E+06 -0.1467454E+01  0.1817585E+06 -0.2287026E+00  0.6094422E+06 -0.1467452E+01
  0.1300000E+01  0.3141687E+06 -0.1424854E+01  0.1572313E+06 -0.2879094E+00  0.6699991E+06 -0.1424855E+01
  0.1400000E+01  0.3358571E+06 -0.1377980E+01  0.1344323E+06 -0.3544785E+00  0.7122048E+06 -0.1377977E+01
  0.1500000E+01  0.3467902E+06 -0.1332703E+01  0.1134561E+06 -0.4285180E+00  0.7307375E+06 -0.1332705E+01
  0.1600000E+01  0.3461387E+06 -0.1296524E+01  0.9437046E+05 -0.5101418E+00  0.7242572E+06 -0.1296528E+01
  0.1700000E+01  0.3351833E+06 -0.1276163E+01  0.7715845E+05 -0.5996985E+00  0.6959181E+06 -0.1276164E+01
  0.1800000E+01  0.3167176E+06 -0.1276340E+01  0.6181380E+05 -0.6973805E+00  0.6520413E+06 -0.1276331E+01
  0.1900000E+01  0.2938389E+06 -0.1299115E+01  0.4825564E+05 -0.8039598E+00  0.5993959E+06 -0.1299100E+01
  0.2000000E+01  0.2692045E+06 -0.1344519E+01  0.3639694E+05 -0.9201047E+00  0.5436982E+06 -0.1344489E+01
  0.2100000E+01  0.2445750E+06 -0.1411416E+01  0.2612582E+05 -0.1047228E+01  0.4887145E+06 -0.1411335E+01
  0.2200000E+01  0.2210414E+06 -0.1497924E+01  0.1729361E+05 -0.1189303E+01  0.4366620E+06 -0.1497809E+01
  0.2300000E+01  0.1991398E+06 -0.1602279E+01  0.9657114E+04 -0.1357728E+01  0.3886232E+06 -0.1602117E+01
  0.2400000E+01  0.1790983E+06 -0.1722886E+01  0.2710000E+04 -0.1692516E+01  0.3450214E+06 -0.1722621E+01
  0.2500000E+01  0.1609207E+06 -0.1858331E+01  0.1559863E+05  0.1532503E+01  0.3057846E+06 -0.1858089E+01
  0.2600000E+01  0.1445309E+06 -0.2007433E+01  0.6947123E+03  0.1469275E+01  0.2707038E+06 -0.2007284E+01
  0.2700000E+01  0.1298141E+06 -0.2169391E+01  0.5474946E+04  0.1229845E+01  0.2394800E+06 -0.2169459E+01
  0.2800000E+01  0.1166159E+06 -0.2343408E+01  0.8312701E+04  0.1018491E+01  0.2117321E+06 -0.2343883E+01
  0.2900000E+01  0.1048480E+06 -0.2527951E+01  0.1035022E+05  0.8027451E+00  0.1872023E+06 -0.2529231E+01
  0.3000000E+01  0.9432070E+05 -0.2720927E+01  0.1186616E+05  0.5799320E+00  0.1653391E+06 -0.2723399E+01
  0.3100000E+01  0.8430355E+05 -0.2903186E+01  0.1301596E+05  0.3504479E+00  0.1436658E+06 -0.2907950E+01
  0.3200000E+01  0.7844974E+05  0.3078285E+01  0.1387873E+05  0.1153334E+00  0.1371106E+06  0.3075763E+01
