 VARIABLES="Time (s)"
"AddedMass    1" "IRF    1"
"AddedMass    2" "IRF    2"
"AddedMass    3" "IRF    3"
Zone t="DoF    1",I=   160,F=POINT
  0.0000000E+00  0.5045276E+05  0.1378634E+06 -0.2533976E-02 -0.2713308E-02  0.1127279E+06  0.2731499E+06
  0.1000000E+00  0.5045276E+05  0.1346434E+06 -0.2533976E-02 -0.2783317E-02  0.1127279E+06  0.2669466E+06
  0.2000000E+00  0.5045276E+05  0.1251677E+06 -0.2533976E-02 -0.2984512E-02  0.1127279E+06  0.2486835E+06
  0.3000000E+00  0.5045276E+05  0.1099777E+06 -0.2533976E-02 -0.3291170E-02  0.1127279E+06  0.2193786E+06
  0.4000000E+00  0.5045276E+05  0.8993558E+05 -0.2533976E-02 -0.3662991E-02  0.1127279E+06  0.1806547E+06
  0.5000000E+00  0.5045276E+05  0.6616784E+05 -0.2533976E-02 -0.4048731E-02  0.1127279E+06  0.1346349E+06
  0.6000000E+00  0.5045276E+05  0.3999147E+05 -0.2533976E-02 -0.4390840E-02  0.1127279E+06  0.8380662E+05
  0.7000000E+00  0.5045276E+05  0.1282911E+05 -0.2533976E-02 -0.4630724E-02  0.1127279E+06  0.3086419E+05
  0.8000000E+00  0.5045276E+05 -0.1388152E+05 -0.2533976E-02 -0.4714174E-02  0.1127279E+06 -0.2145917E+05
  0.9000000E+00  0.5045276E+05 -0.3877693E+05 -0.2533976E-02 -0.4596510E-02  0.1127279E+06 -0.7055736E+05
  0.1000000E+01  0.5045276E+05 -0.6064990E+05 -0.2533976E-02 -0.4247000E-02  0.1127279E+06 -0.1141053E+06
  0.1100000E+01  0.5045276E+05 -0.7851882E+05 -0.2533976E-02 -0.3652161E-02  0.1127279E+06 -0.1501893E+06
  0.1200000E+01  0.5045276E+05 -0.9167932E+05 -0.2533976E-02 -0.2817680E-02  0.1127279E+06 -0.1774060E+06
  0.1300000E+01  0.5045276E+05 -0.9973587E+05 -0.2533976E-02 -0.1768763E-02  0.1127279E+06 -0.1949246E+06
  0.1400000E+01  0.5045276E+05 -0.1026109E+06 -0.2533976E-02 -0.5488878E-03  0.1127279E+06 -0.2025080E+06
  0.1500000E+01  0.5045276E+05 -0.1005325E+06 -0.2533976E-02  0.7829703E-03  0.1127279E+06 -0.2004945E+06
  0.1600000E+01  0.5045276E+05 -0.9400193E+05 -0.2533976E-02  0.2156385E-02  0.1127279E+06 -0.1897421E+06
  0.1700000E+01  0.5045276E+05 -0.8374401E+05 -0.2533976E-02  0.3494529E-02  0.1127279E+06 -0.1715413E+06
  0.1800000E+01  0.5045276E+05 -0.7064544E+05 -0.2533976E-02  0.4719770E-02  0.1127279E+06 -0.1475035E+06
  0.1900000E+01  0.5045276E+05 -0.5568550E+05 -0.2533976E-02  0.5759430E-02  0.1127279E+06 -0.1194360E+06
  0.2000000E+01  0.5045276E+05 -0.3986482E+05 -0.2533976E-02  0.6551179E-02  0.1127279E+06 -0.8921090E+05
  0.2100000E+01  0.5045276E+05 -0.2413748E+05 -0.2533976E-02  0.7047704E-02  0.1127279E+06 -0.5863916E+05
  0.2200000E+01  0.5045276E+05 -0.9351562E+04 -0.2533976E-02  0.7220245E-02  0.1127279E+06 -0.2935915E+05
  0.2300000E+01  0.5045276E+05  0.3798698E+04 -0.2533976E-02  0.7060767E-02  0.1127279E+06 -0.2744981E+04
  0.2400000E+01  0.5045276E+05  0.1480512E+05 -0.2533976E-02  0.6582541E-02  0.1127279E+06  0.2015791E+05
  0.2500000E+01  0.5045276E+05  0.2336192E+05 -0.2533976E-02  0.5819200E-02  0.1127279E+06  0.3866816E+05
  0.2600000E+01  0.5045276E+05  0.2936542E+05 -0.2533976E-02  0.4822245E-02  0.1127279E+06  0.5247438E+05
  0.2700000E+01  0.5045276E+05  0.3289848E+05 -0.2533976E-02  0.3657312E-02  0.1127279E+06  0.6161260E+05
  0.2800000E+01  0.5045276E+05  0.3420212E+05 -0.2533976E-02  0.2399422E-02  0.1127279E+06  0.6642038E+05
  0.2900000E+01  0.5045276E+05  0.3363751E+05 -0.2533976E-02  0.1127627E-02  0.1127279E+06  0.6747212E+05
  0.3000000E+01  0.5045276E+05  0.3164224E+05 -0.2533976E-02 -0.8051482E-04  0.1127279E+06  0.6550312E+05
  0.3100000E+01  0.5045276E+05  0.2868489E+05 -0.2533976E-02 -0.1154296E-02  0.1127279E+06  0.6132902E+05
  0.3200000E+01  0.5045276E+05  0.2522190E+05 -0.2533976E-02 -0.2034536E-02  0.1127279E+06  0.5576796E+05
  0.3300000E+01  0.5045276E+05  0.2166005E+05 -0.2533976E-02 -0.2677371E-02  0.1127279E+06  0.4957171E+05
  0.3400000E+01  0.5045276E+05  0.1832747E+05 -0.2533976E-02 -0.3056790E-02  0.1127279E+06  0.4337064E+05
  0.3500000E+01  0.5045276E+05  0.1545490E+05 -0.2533976E-02 -0.3165836E-02  0.1127279E+06  0.3763639E+05
  0.3600000E+01  0.5045276E+05  0.1316798E+05 -0.2533976E-02 -0.3016407E-02  0.1127279E+06  0.3266337E+05
  0.3700000E+01  0.5045276E+05  0.1149028E+05 -0.2533976E-02 -0.2637711E-02  0.1127279E+06  0.2856953E+05
  0.3800000E+01  0.5045276E+05  0.1035591E+05 -0.2533976E-02 -0.2073535E-02  0.1127279E+06  0.2531401E+05
  0.3900000E+01  0.5045276E+05  0.9629822E+04 -0.2533976E-02 -0.1378595E-02  0.1127279E+06  0.2272893E+05
  0.4000000E+01  0.5045276E+05  0.9132958E+04 -0.2533976E-02 -0.6142521E-03  0.1127279E+06  0.2056057E+05
  0.4100000E+01  0.5045276E+05  0.8669704E+04 -0.2533976E-02  0.1560674E-03  0.1127279E+06  0.1851539E+05
  0.4200000E+01  0.5045276E+05  0.8054600E+04 -0.2533976E-02  0.8713957E-03  0.1127279E+06  0.1630561E+05
  0.4300000E+01  0.5045276E+05  0.7135766E+04 -0.2533976E-02  0.1477354E-02  0.1127279E+06  0.1369012E+05
  0.4400000E+01  0.5045276E+05  0.5812831E+04 -0.2533976E-02  0.1929659E-02  0.1127279E+06  0.1050637E+05
  0.4500000E+01  0.5045276E+05  0.4048149E+04 -0.2533976E-02  0.2196729E-02  0.1127279E+06  0.6691434E+04
  0.4600000E+01  0.5045276E+05  0.1870123E+04 -0.2533976E-02  0.2261288E-02  0.1127279E+06  0.2289554E+04
  0.4700000E+01  0.5045276E+05 -0.6307487E+03 -0.2533976E-02  0.2120906E-02  0.1127279E+06 -0.2552614E+04
  0.4800000E+01  0.5045276E+05 -0.3312723E+04 -0.2533976E-02  0.1787516E-02  0.1127279E+06 -0.7602716E+04
  0.4900000E+01  0.5045276E+05 -0.5998822E+04 -0.2533976E-02  0.1285970E-02  0.1127279E+06 -0.1256853E+05
  0.5000000E+01  0.5045276E+05 -0.8496431E+04 -0.2533976E-02  0.6518310E-03  0.1127279E+06 -0.1713040E+05
  0.5100000E+01  0.5045276E+05 -0.1061788E+05 -0.2533976E-02 -0.7140930E-04  0.1127279E+06 -0.2097546E+05
  0.5200000E+01  0.5045276E+05 -0.1220027E+05 -0.2533976E-02 -0.8354445E-03  0.1127279E+06 -0.2383140E+05
  0.5300000E+01  0.5045276E+05 -0.1312225E+05 -0.2533976E-02 -0.1590379E-02  0.1127279E+06 -0.2549506E+05
  0.5400000E+01  0.5045276E+05 -0.1331652E+05 -0.2533976E-02 -0.2287850E-02  0.1127279E+06 -0.2585413E+05
  0.5500000E+01  0.5045276E+05 -0.1277621E+05 -0.2533976E-02 -0.2883819E-02  0.1127279E+06 -0.2489868E+05
  0.5600000E+01  0.5045276E+05 -0.1155554E+05 -0.2533976E-02 -0.3340920E-02  0.1127279E+06 -0.2272288E+05
  0.5700000E+01  0.5045276E+05 -0.9764206E+04 -0.2533976E-02 -0.3630236E-02  0.1127279E+06 -0.1951623E+05
  0.5800000E+01  0.5045276E+05 -0.7556584E+04 -0.2533976E-02 -0.3732467E-02  0.1127279E+06 -0.1554556E+05
  0.5900000E+01  0.5045276E+05 -0.5116793E+04 -0.2533976E-02 -0.3638474E-02  0.1127279E+06 -0.1113010E+05
  0.6000000E+01  0.5045276E+05 -0.2641107E+04 -0.2533976E-02 -0.3349252E-02  0.1127279E+06 -0.6611655E+04
  0.6100000E+01  0.5045276E+05 -0.3199732E+03 -0.2533976E-02 -0.2875368E-02  0.1127279E+06 -0.2323934E+04
  0.6200000E+01  0.5045276E+05  0.1679229E+04 -0.2533976E-02 -0.2235998E-02  0.1127279E+06  0.1437127E+04
  0.6300000E+01  0.5045276E+05  0.3226427E+04 -0.2533976E-02 -0.1457680E-02  0.1127279E+06  0.4438055E+04
  0.6400000E+01  0.5045276E+05  0.4239345E+04 -0.2533976E-02 -0.5727694E-03  0.1127279E+06  0.6526290E+04
  0.6500000E+01  0.5045276E+05  0.4688970E+04 -0.2533976E-02  0.3821069E-03  0.1127279E+06  0.7640269E+04
  0.6600000E+01  0.5045276E+05  0.4599595E+04 -0.2533976E-02  0.1367709E-02  0.1127279E+06  0.7810102E+04
  0.6700000E+01  0.5045276E+05  0.4044017E+04 -0.2533976E-02  0.2343770E-02  0.1127279E+06  0.7150103E+04
  0.6800000E+01  0.5045276E+05  0.3134152E+04 -0.2533976E-02  0.3270518E-02  0.1127279E+06  0.5843325E+04
  0.6900000E+01  0.5045276E+05  0.2008127E+04 -0.2533976E-02  0.4110077E-02  0.1127279E+06  0.4119951E+04
  0.7000000E+01  0.5045276E+05  0.8154872E+03 -0.2533976E-02  0.4827760E-02  0.1127279E+06  0.2232285E+04
  0.7100000E+01  0.5045276E+05 -0.2980574E+03 -0.2533976E-02  0.5393224E-02  0.1127279E+06  0.4288299E+03
  0.7200000E+01  0.5045276E+05 -0.1205099E+04 -0.2533976E-02  0.5781480E-02  0.1127279E+06 -0.1070611E+04
  0.7300000E+01  0.5045276E+05 -0.1808299E+04 -0.2533976E-02  0.5973767E-02  0.1127279E+06 -0.2095264E+04
  0.7400000E+01  0.5045276E+05 -0.2049033E+04 -0.2533976E-02  0.5958282E-02  0.1127279E+06 -0.2538676E+04
  0.7500000E+01  0.5045276E+05 -0.1911544E+04 -0.2533976E-02  0.5730681E-02  0.1127279E+06 -0.2366239E+04
  0.7600000E+01  0.5045276E+05 -0.1422731E+04 -0.2533976E-02  0.5294428E-02  0.1127279E+06 -0.1615584E+04
  0.7700000E+01  0.5045276E+05 -0.6476763E+03 -0.2533976E-02  0.4660849E-02  0.1127279E+06 -0.3894459E+03
  0.7800000E+01  0.5045276E+05  0.3185318E+03 -0.2533976E-02  0.3848961E-02  0.1127279E+06  0.1157678E+04
  0.7900000E+01  0.5045276E+05  0.1361905E+04 -0.2533976E-02  0.2884916E-02  0.1127279E+06  0.2838036E+04
  0.8000000E+01  0.5045276E+05  0.2361885E+04 -0.2533976E-02  0.1801193E-02  0.1127279E+06  0.4451231E+04
  0.8100000E+01  0.5045276E+05  0.3204454E+04 -0.2533976E-02  0.6354240E-03  0.1127279E+06  0.5806468E+04
  0.8200000E+01  0.5045276E+05  0.3793602E+04 -0.2533976E-02 -0.5710565E-03  0.1127279E+06  0.6742015E+04
  0.8300000E+01  0.5045276E+05  0.4061161E+04 -0.2533976E-02 -0.1774974E-02  0.1127279E+06  0.7142032E+04
  0.8400001E+01  0.5045276E+05  0.3973140E+04 -0.2533976E-02 -0.2932968E-02  0.1127279E+06  0.6947621E+04
  0.8500000E+01  0.5045276E+05  0.3532705E+04 -0.2533976E-02 -0.4003598E-02  0.1127279E+06  0.6162187E+04
  0.8600000E+01  0.5045276E+05  0.2779072E+04 -0.2533976E-02 -0.4949355E-02  0.1127279E+06  0.4849900E+04
  0.8700000E+01  0.5045276E+05  0.1782910E+04 -0.2533976E-02 -0.5738397E-02  0.1127279E+06  0.3128245E+04
  0.8800000E+01  0.5045276E+05  0.6385560E+03 -0.2533976E-02 -0.6346161E-02  0.1127279E+06  0.1155125E+04
  0.8900001E+01  0.5045276E+05 -0.5457234E+03 -0.2533976E-02 -0.6756469E-02  0.1127279E+06 -0.8873833E+03
  0.9000000E+01  0.5045276E+05 -0.1659255E+04 -0.2533976E-02 -0.6962252E-02  0.1127279E+06 -0.2812494E+04
  0.9100000E+01  0.5045276E+05 -0.2599656E+04 -0.2533976E-02 -0.6965678E-02  0.1127279E+06 -0.4446650E+04
  0.9200000E+01  0.5045276E+05 -0.3283147E+04 -0.2533976E-02 -0.6777728E-02  0.1127279E+06 -0.5647157E+04
  0.9300000E+01  0.5045276E+05 -0.3652458E+04 -0.2533976E-02 -0.6417258E-02  0.1127279E+06 -0.6315561E+04
  0.9400001E+01  0.5045276E+05 -0.3681894E+04 -0.2533976E-02 -0.5909560E-02  0.1127279E+06 -0.6406493E+04
  0.9500000E+01  0.5045276E+05 -0.3379295E+04 -0.2533976E-02 -0.5284538E-02  0.1127279E+06 -0.5931133E+04
  0.9600000E+01  0.5045276E+05 -0.2784491E+04 -0.2533976E-02 -0.4574632E-02  0.1127279E+06 -0.4954825E+04
  0.9700000E+01  0.5045276E+05 -0.1964565E+04 -0.2533976E-02 -0.3812682E-02  0.1127279E+06 -0.3589250E+04
  0.9800000E+01  0.5045276E+05 -0.1006653E+04 -0.2533976E-02 -0.3029808E-02  0.1127279E+06 -0.1980491E+04
  0.9900001E+01  0.5045276E+05 -0.8751657E+01 -0.2533976E-02 -0.2253574E-02  0.1127279E+06 -0.2934973E+03
  0.1000000E+02  0.5045276E+05  0.9301069E+03 -0.2533976E-02 -0.1506499E-02  0.1127279E+06  0.1304309E+04
  0.1010000E+02  0.5045276E+05  0.1719914E+04 -0.2533976E-02 -0.8050163E-03  0.1127279E+06  0.2660191E+04
  0.1020000E+02  0.5045276E+05  0.2288098E+04 -0.2533976E-02 -0.1590778E-03  0.1127279E+06  0.3650203E+04
  0.1030000E+02  0.5045276E+05  0.2586545E+04 -0.2533976E-02  0.4277559E-03  0.1127279E+06  0.4191291E+04
  0.1040000E+02  0.5045276E+05  0.2595486E+04 -0.2533976E-02  0.9576000E-03  0.1127279E+06  0.4247876E+04
  0.1050000E+02  0.5045276E+05  0.2324935E+04 -0.2533976E-02  0.1437082E-02  0.1127279E+06  0.3834540E+04
  0.1060000E+02  0.5045276E+05  0.1812612E+04 -0.2533976E-02  0.1875840E-02  0.1127279E+06  0.3012596E+04
  0.1070000E+02  0.5045276E+05  0.1119690E+04 -0.2533976E-02  0.2284734E-02  0.1127279E+06  0.1883137E+04
  0.1080000E+02  0.5045276E+05  0.3237395E+03 -0.2533976E-02  0.2674098E-02  0.1127279E+06  0.5751624E+03
  0.1090000E+02  0.5045276E+05 -0.4892292E+03 -0.2533976E-02  0.3052021E-02  0.1127279E+06 -0.7676111E+03
  0.1100000E+02  0.5045276E+05 -0.1233836E+04 -0.2533976E-02  0.3422999E-02  0.1127279E+06 -0.2002111E+04
  0.1110000E+02  0.5045276E+05 -0.1833975E+04 -0.2533976E-02  0.3786949E-02  0.1127279E+06 -0.3000401E+04
  0.1120000E+02  0.5045276E+05 -0.2230155E+04 -0.2533976E-02  0.4138725E-02  0.1127279E+06 -0.3662099E+04
  0.1130000E+02  0.5045276E+05 -0.2385144E+04 -0.2533976E-02  0.4468253E-02  0.1127279E+06 -0.3923875E+04
  0.1140000E+02  0.5045276E+05 -0.2287283E+04 -0.2533976E-02  0.4761147E-02  0.1127279E+06 -0.3765193E+04
  0.1150000E+02  0.5045276E+05 -0.1951033E+04 -0.2533976E-02  0.4999855E-02  0.1127279E+06 -0.3209253E+04
  0.1160000E+02  0.5045276E+05 -0.1414867E+04 -0.2533976E-02  0.5165235E-02  0.1127279E+06 -0.2319556E+04
  0.1170000E+02  0.5045276E+05 -0.7369395E+03 -0.2533976E-02  0.5238308E-02  0.1127279E+06 -0.1192688E+04
  0.1180000E+02  0.5045276E+05  0.1136823E+02 -0.2533976E-02  0.5202167E-02  0.1127279E+06  0.5245678E+02
  0.1190000E+02  0.5045276E+05  0.7527993E+03 -0.2533976E-02  0.5043780E-02  0.1127279E+06  0.1286967E+04
  0.1200000E+02  0.5045276E+05  0.1412275E+04 -0.2533976E-02  0.4755520E-02  0.1127279E+06  0.2385427E+04
  0.1210000E+02  0.5045276E+05  0.1924508E+04 -0.2533976E-02  0.4336326E-02  0.1127279E+06  0.3238694E+04
  0.1220000E+02  0.5045276E+05  0.2240156E+04 -0.2533976E-02  0.3792352E-02  0.1127279E+06  0.3764185E+04
  0.1230000E+02  0.5045276E+05  0.2330774E+04 -0.2533976E-02  0.3136966E-02  0.1127279E+06  0.3914236E+04
  0.1240000E+02  0.5045276E+05  0.2191057E+04 -0.2533976E-02  0.2390290E-02  0.1127279E+06  0.3679867E+04
  0.1250000E+02  0.5045276E+05  0.1839109E+04 -0.2533976E-02  0.1578066E-02  0.1127279E+06  0.3091261E+04
  0.1260000E+02  0.5045276E+05  0.1313743E+04 -0.2533976E-02  0.7300880E-03  0.1127279E+06  0.2213137E+04
  0.1270000E+02  0.5045276E+05  0.6707708E+03 -0.2533976E-02 -0.1216515E-03  0.1127279E+06  0.1138758E+04
  0.1280000E+02  0.5045276E+05 -0.2356674E+02 -0.2533976E-02 -0.9450758E-03  0.1127279E+06 -0.2128666E+02
  0.1290000E+02  0.5045276E+05 -0.6990118E+03 -0.2533976E-02 -0.1710042E-02  0.1127279E+06 -0.1149673E+04
  0.1300000E+02  0.5045276E+05 -0.1288799E+04 -0.2533976E-02 -0.2390268E-02  0.1127279E+06 -0.2135021E+04
  0.1310000E+02  0.5045276E+05 -0.1735951E+04 -0.2533976E-02 -0.2964933E-02  0.1127279E+06 -0.2882269E+04
  0.1320000E+02  0.5045276E+05 -0.1999113E+04 -0.2533976E-02 -0.3419726E-02  0.1127279E+06 -0.3322593E+04
  0.1330000E+02  0.5045276E+05 -0.2056201E+04 -0.2533976E-02 -0.3747474E-02  0.1127279E+06 -0.3419330E+04
  0.1340000E+02  0.5045276E+05 -0.1906260E+04 -0.2533976E-02 -0.3948126E-02  0.1127279E+06 -0.3171147E+04
  0.1350000E+02  0.5045276E+05 -0.1569146E+04 -0.2533976E-02 -0.4028179E-02  0.1127279E+06 -0.2611440E+04
  0.1360000E+02  0.5045276E+05 -0.1083089E+04 -0.2533976E-02 -0.3999648E-02  0.1127279E+06 -0.1804176E+04
  0.1370000E+02  0.5045276E+05 -0.5003970E+03 -0.2533976E-02 -0.3878617E-02  0.1127279E+06 -0.8367431E+03
  0.1380000E+02  0.5045276E+05  0.1179808E+03 -0.2533976E-02 -0.3683579E-02  0.1127279E+06  0.1891802E+03
  0.1390000E+02  0.5045276E+05  0.7088354E+03 -0.2533976E-02 -0.3433677E-02  0.1127279E+06  0.1168349E+04
  0.1400000E+02  0.5045276E+05  0.1213190E+04 -0.2533976E-02 -0.3147027E-02  0.1127279E+06  0.2002747E+04
  0.1410000E+02  0.5045276E+05  0.1582080E+04 -0.2533976E-02 -0.2839311E-02  0.1127279E+06  0.2611222E+04
  0.1420000E+02  0.5045276E+05  0.1781129E+04 -0.2533976E-02 -0.2522687E-02  0.1127279E+06  0.2937067E+04
  0.1430000E+02  0.5045276E+05  0.1793961E+04 -0.2533976E-02 -0.2205187E-02  0.1127279E+06  0.2953654E+04
  0.1440000E+02  0.5045276E+05  0.1623302E+04 -0.2533976E-02 -0.1890594E-02  0.1127279E+06  0.2666216E+04
  0.1450000E+02  0.5045276E+05  0.1290397E+04 -0.2533976E-02 -0.1578794E-02  0.1127279E+06  0.2110754E+04
  0.1460000E+02  0.5045276E+05  0.8323126E+03 -0.2533976E-02 -0.1266591E-02  0.1127279E+06  0.1349437E+04
  0.1470000E+02  0.5045276E+05  0.2982828E+03 -0.2533976E-02 -0.9488306E-03  0.1127279E+06  0.4645699E+03
  0.1480000E+02  0.5045276E+05 -0.2562166E+03 -0.2533976E-02 -0.6197459E-03  0.1127279E+06 -0.4515617E+03
  0.1490000E+02  0.5045276E+05 -0.7743396E+03 -0.2533976E-02 -0.2743231E-03  0.1127279E+06 -0.1304601E+04
  0.1500000E+02  0.5045276E+05 -0.1204414E+04 -0.2533976E-02  0.9033449E-04  0.1127279E+06 -0.2009189E+04
  0.1510000E+02  0.5045276E+05 -0.1504518E+04 -0.2533976E-02  0.4740125E-03  0.1127279E+06 -0.2496403E+04
  0.1520000E+02  0.5045276E+05 -0.1646824E+04 -0.2533976E-02  0.8726409E-03  0.1127279E+06 -0.2721045E+04
  0.1530000E+02  0.5045276E+05 -0.1619950E+04 -0.2533976E-02  0.1278048E-02  0.1127279E+06 -0.2665332E+04
  0.1540000E+02  0.5045276E+05 -0.1429908E+04 -0.2533976E-02  0.1678153E-02  0.1127279E+06 -0.2340443E+04
  0.1550000E+02  0.5045276E+05 -0.1098993E+04 -0.2533976E-02  0.2057652E-02  0.1127279E+06 -0.1784444E+04
  0.1560000E+02  0.5045276E+05 -0.6632179E+03 -0.2533976E-02  0.2399151E-02  0.1127279E+06 -0.1057975E+04
  0.1570000E+02  0.5045276E+05 -0.1687994E+03 -0.2533976E-02  0.2684501E-02  0.1127279E+06 -0.2383420E+03
  0.1580000E+02  0.5045276E+05  0.3334153E+03 -0.2533976E-02  0.2896453E-02  0.1127279E+06  0.5899669E+03
  0.1590000E+02  0.5045276E+05  0.7926172E+03 -0.2533976E-02  0.3020226E-02  0.1127279E+06  0.1342922E+04
Zone t="DoF    2",I=   160,F=POINT
  0.0000000E+00 -0.2154563E-02  0.3302310E-02  0.6870245E+05  0.2165761E+05 -0.3902465E-02  0.7233145E-02
  0.1000000E+00 -0.2154563E-02  0.3157371E-02  0.6870245E+05  0.2146332E+05 -0.3902465E-02  0.6915681E-02
  0.2000000E+00 -0.2154563E-02  0.2733054E-02  0.6870245E+05  0.2088666E+05 -0.3902465E-02  0.5986356E-02
  0.3000000E+00 -0.2154563E-02  0.2060116E-02  0.6870245E+05  0.1994592E+05 -0.3902465E-02  0.4512713E-02
  0.4000000E+00 -0.2154563E-02  0.1187385E-02  0.6870245E+05  0.1867050E+05 -0.3902465E-02  0.2601931E-02
  0.5000000E+00 -0.2154563E-02  0.1782925E-03  0.6870245E+05  0.1709942E+05 -0.3902465E-02  0.3931472E-03
  0.6000000E+00 -0.2154563E-02 -0.8936206E-03  0.6870245E+05  0.1527932E+05 -0.3902465E-02 -0.1952487E-02
  0.7000000E+00 -0.2154563E-02 -0.1949900E-02  0.6870245E+05  0.1326224E+05 -0.3902465E-02 -0.4263278E-02
  0.8000000E+00 -0.2154563E-02 -0.2912708E-02  0.6870245E+05  0.1110309E+05 -0.3902465E-02 -0.6369186E-02
  0.9000000E+00 -0.2154563E-02 -0.3710282E-02  0.6870245E+05  0.8857313E+04 -0.3902465E-02 -0.8113801E-02
  0.1000000E+01 -0.2154563E-02 -0.4281934E-02  0.6870245E+05  0.6578549E+04 -0.3902465E-02 -0.9365303E-02
  0.1100000E+01 -0.2154563E-02 -0.4582251E-02  0.6870245E+05  0.4316715E+04 -0.3902465E-02 -0.1002559E-01
  0.1200000E+01 -0.2154563E-02 -0.4584185E-02  0.6870245E+05  0.2116435E+04 -0.3902465E-02 -0.1003691E-01
  0.1300000E+01 -0.2154563E-02 -0.4280846E-02  0.6870245E+05  0.1595898E+02 -0.3902465E-02 -0.9385631E-02
  0.1400000E+01 -0.2154563E-02 -0.3685865E-02  0.6870245E+05 -0.1953414E+04 -0.3902465E-02 -0.8102847E-02
  0.1500000E+01 -0.2154563E-02 -0.2832341E-02  0.6870245E+05 -0.3767425E+04 -0.3902465E-02 -0.6261813E-02
  0.1600000E+01 -0.2154563E-02 -0.1770452E-02  0.6870245E+05 -0.5408497E+04 -0.3902465E-02 -0.3972544E-02
  0.1700000E+01 -0.2154563E-02 -0.5639241E-03  0.6870245E+05 -0.6865054E+04 -0.3902465E-02 -0.1373894E-02
  0.1800000E+01 -0.2154563E-02  0.7143655E-03  0.6870245E+05 -0.8130583E+04 -0.3902465E-02  0.1376185E-02
  0.1900000E+01 -0.2154563E-02  0.1987345E-02  0.6870245E+05 -0.9202575E+04 -0.3902465E-02  0.4111517E-02
  0.2000000E+01 -0.2154563E-02  0.3178885E-02  0.6870245E+05 -0.1008149E+05 -0.3902465E-02  0.6668894E-02
  0.2100000E+01 -0.2154563E-02  0.4218752E-02  0.6870245E+05 -0.1076979E+05 -0.3902465E-02  0.8898749E-02
  0.2200000E+01 -0.2154563E-02  0.5047064E-02  0.6870245E+05 -0.1127120E+05 -0.3902465E-02  0.1067465E-01
  0.2300000E+01 -0.2154563E-02  0.5617925E-02  0.6870245E+05 -0.1159028E+05 -0.3902465E-02  0.1190089E-01
  0.2400000E+01 -0.2154563E-02  0.5901996E-02  0.6870245E+05 -0.1173212E+05 -0.3902465E-02  0.1251779E-01
  0.2500000E+01 -0.2154563E-02  0.5887906E-02  0.6870245E+05 -0.1170249E+05 -0.3902465E-02  0.1250424E-01
  0.2600000E+01 -0.2154563E-02  0.5582387E-02  0.6870245E+05 -0.1150808E+05 -0.3902465E-02  0.1187770E-01
  0.2700000E+01 -0.2154563E-02  0.5009213E-02  0.6870245E+05 -0.1115701E+05 -0.3902465E-02  0.1069138E-01
  0.2800000E+01 -0.2154563E-02  0.4207016E-02  0.6870245E+05 -0.1065935E+05 -0.3902465E-02  0.9029330E-02
  0.2900000E+01 -0.2154563E-02  0.3226233E-02  0.6870245E+05 -0.1002761E+05 -0.3902465E-02  0.6999449E-02
  0.3000000E+01 -0.2154563E-02  0.2125383E-02  0.6870245E+05 -0.9277185E+04 -0.3902465E-02  0.4725431E-02
  0.3100000E+01 -0.2154563E-02  0.9669818E-03  0.6870245E+05 -0.8426533E+04 -0.3902465E-02  0.2337909E-02
  0.3200000E+01 -0.2154563E-02 -0.1865749E-03  0.6870245E+05 -0.7497136E+04 -0.3902465E-02 -0.3424309E-04
  0.3300000E+01 -0.2154563E-02 -0.1276930E-02  0.6870245E+05 -0.6513136E+04 -0.3902465E-02 -0.2272046E-02
  0.3400000E+01 -0.2154563E-02 -0.2253152E-02  0.6870245E+05 -0.5500694E+04 -0.3902465E-02 -0.4273275E-02
  0.3500000E+01 -0.2154563E-02 -0.3074415E-02  0.6870245E+05 -0.4487096E+04 -0.3902465E-02 -0.5957699E-02
  0.3600000E+01 -0.2154563E-02 -0.3711841E-02  0.6870245E+05 -0.3499571E+04 -0.3902465E-02 -0.7270447E-02
  0.3700000E+01 -0.2154563E-02 -0.4149368E-02  0.6870245E+05 -0.2564098E+04 -0.3902465E-02 -0.8183272E-02
  0.3800000E+01 -0.2154563E-02 -0.4383698E-02  0.6870245E+05 -0.1704073E+04 -0.3902465E-02 -0.8693875E-02
  0.3900000E+01 -0.2154563E-02 -0.4423360E-02  0.6870245E+05 -0.9391177E+03 -0.3902465E-02 -0.8823413E-02
  0.4000000E+01 -0.2154563E-02 -0.4287017E-02  0.6870245E+05 -0.2840778E+03 -0.3902465E-02 -0.8612518E-02
  0.4100000E+01 -0.2154563E-02 -0.4001217E-02  0.6870245E+05  0.2517610E+03 -0.3902465E-02 -0.8116272E-02
  0.4200000E+01 -0.2154563E-02 -0.3597770E-02  0.6870245E+05  0.6650523E+03 -0.3902465E-02 -0.7398595E-02
  0.4300000E+01 -0.2154563E-02 -0.3111009E-02  0.6870245E+05  0.9584081E+03 -0.3902465E-02 -0.6526545E-02
  0.4400000E+01 -0.2154563E-02 -0.2575109E-02  0.6870245E+05  0.1140026E+04 -0.3902465E-02 -0.5564950E-02
  0.4500000E+01 -0.2154563E-02 -0.2021728E-02  0.6870245E+05  0.1222939E+04 -0.3902465E-02 -0.4571859E-02
  0.4600000E+01 -0.2154563E-02 -0.1478056E-02  0.6870245E+05  0.1223941E+04 -0.3902465E-02 -0.3595036E-02
  0.4700000E+01 -0.2154563E-02 -0.9654694E-03  0.6870245E+05  0.1162307E+04 -0.3902465E-02 -0.2669758E-02
  0.4800000E+01 -0.2154563E-02 -0.4987931E-03  0.6870245E+05  0.1058354E+04 -0.3902465E-02 -0.1817974E-02
  0.4900000E+01 -0.2154563E-02 -0.8618359E-04  0.6870245E+05  0.9320171E+03 -0.3902465E-02 -0.1048741E-02
  0.5000000E+01 -0.2154563E-02  0.2703684E-03  0.6870245E+05  0.8014940E+03 -0.3902465E-02 -0.3598754E-03
  0.5100000E+01 -0.2154563E-02  0.5740626E-03  0.6870245E+05  0.6821121E+03 -0.3902465E-02  0.2595189E-03
  0.5200000E+01 -0.2154563E-02  0.8319409E-03  0.6870245E+05  0.5854745E+03 -0.3902465E-02  0.8258927E-03
  0.5300000E+01 -0.2154563E-02  0.1053322E-02  0.6870245E+05  0.5189510E+03 -0.3902465E-02  0.1357844E-02
  0.5400000E+01 -0.2154563E-02  0.1248181E-02  0.6870245E+05  0.4855345E+03 -0.3902465E-02  0.1872782E-02
  0.5500000E+01 -0.2154563E-02  0.1425636E-02  0.6870245E+05  0.4840776E+03 -0.3902465E-02  0.2384011E-02
  0.5600000E+01 -0.2154563E-02  0.1592656E-02  0.6870245E+05  0.5098552E+03 -0.3902465E-02  0.2898456E-02
  0.5700000E+01 -0.2154563E-02  0.1753128E-02  0.6870245E+05  0.5553882E+03 -0.3902465E-02  0.3415263E-02
  0.5800000E+01 -0.2154563E-02  0.1907318E-02  0.6870245E+05  0.6114662E+03 -0.3902465E-02  0.3925321E-02
  0.5900000E+01 -0.2154563E-02  0.2051798E-02  0.6870245E+05  0.6682298E+03 -0.3902465E-02  0.4411782E-02
  0.6000000E+01 -0.2154563E-02  0.2179787E-02  0.6870245E+05  0.7162688E+03 -0.3902465E-02  0.4851443E-02
  0.6100000E+01 -0.2154563E-02  0.2281885E-02  0.6870245E+05  0.7475685E+03 -0.3902465E-02  0.5216862E-02
  0.6200000E+01 -0.2154563E-02  0.2347081E-02  0.6870245E+05  0.7562841E+03 -0.3902465E-02  0.5478939E-02
  0.6300000E+01 -0.2154563E-02  0.2363977E-02  0.6870245E+05  0.7392547E+03 -0.3902465E-02  0.5609788E-02
  0.6400000E+01 -0.2154563E-02  0.2322078E-02  0.6870245E+05  0.6962026E+03 -0.3902465E-02  0.5585575E-02
  0.6500000E+01 -0.2154563E-02  0.2213004E-02  0.6870245E+05  0.6296710E+03 -0.3902465E-02  0.5389033E-02
  0.6600000E+01 -0.2154563E-02  0.2031571E-02  0.6870245E+05  0.5446374E+03 -0.3902465E-02  0.5011523E-02
  0.6700000E+01 -0.2154563E-02  0.1776589E-02  0.6870245E+05  0.4479340E+03 -0.3902465E-02  0.4454348E-02
  0.6800000E+01 -0.2154563E-02  0.1451343E-02  0.6870245E+05  0.3474892E+03 -0.3902465E-02  0.3729341E-02
  0.6900000E+01 -0.2154563E-02  0.1063695E-02  0.6870245E+05  0.2514791E+03 -0.3902465E-02  0.2858554E-02
  0.7000000E+01 -0.2154563E-02  0.6258063E-03  0.6870245E+05  0.1675026E+03 -0.3902465E-02  0.1873168E-02
  0.7100000E+01 -0.2154563E-02  0.1535352E-03  0.6870245E+05  0.1018193E+03 -0.3902465E-02  0.8117407E-03
  0.7200000E+01 -0.2154563E-02 -0.3345001E-03  0.6870245E+05  0.5876342E+02 -0.3902465E-02 -0.2821594E-03
  0.7300000E+01 -0.2154563E-02 -0.8180235E-03  0.6870245E+05  0.4035555E+02 -0.3902465E-02 -0.1362574E-02
  0.7400000E+01 -0.2154563E-02 -0.1276377E-02  0.6870245E+05  0.4615845E+02 -0.3902465E-02 -0.2383993E-02
  0.7500000E+01 -0.2154563E-02 -0.1689797E-02  0.6870245E+05  0.7339517E+02 -0.3902465E-02 -0.3304072E-02
  0.7600000E+01 -0.2154563E-02 -0.2040602E-02  0.6870245E+05  0.1172709E+03 -0.3902465E-02 -0.4086034E-02
  0.7700000E+01 -0.2154563E-02 -0.2314259E-02  0.6870245E+05  0.1715217E+03 -0.3902465E-02 -0.4700675E-02
  0.7800000E+01 -0.2154563E-02 -0.2500160E-02  0.6870245E+05  0.2290616E+03 -0.3902465E-02 -0.5127721E-02
  0.7900000E+01 -0.2154563E-02 -0.2592161E-02  0.6870245E+05  0.2827166E+03 -0.3902465E-02 -0.5356594E-02
  0.8000000E+01 -0.2154563E-02 -0.2588806E-02  0.6870245E+05  0.3259481E+03 -0.3902465E-02 -0.5386500E-02
  0.8100000E+01 -0.2154563E-02 -0.2493192E-02  0.6870245E+05  0.3534818E+03 -0.3902465E-02 -0.5225859E-02
  0.8200000E+01 -0.2154563E-02 -0.2312626E-02  0.6870245E+05  0.3618070E+03 -0.3902465E-02 -0.4891246E-02
  0.8300000E+01 -0.2154563E-02 -0.2057975E-02  0.6870245E+05  0.3494896E+03 -0.3902465E-02 -0.4405864E-02
  0.8400001E+01 -0.2154563E-02 -0.1742870E-02  0.6870245E+05  0.3172467E+03 -0.3902465E-02 -0.3797774E-02
  0.8500000E+01 -0.2154563E-02 -0.1382810E-02  0.6870245E+05  0.2678575E+03 -0.3902465E-02 -0.3098029E-02
  0.8600000E+01 -0.2154563E-02 -0.9941832E-03  0.6870245E+05  0.2058007E+03 -0.3902465E-02 -0.2338748E-02
  0.8700000E+01 -0.2154563E-02 -0.5933899E-03  0.6870245E+05  0.1367964E+03 -0.3902465E-02 -0.1551481E-02
  0.8800000E+01 -0.2154563E-02 -0.1959863E-03  0.6870245E+05  0.6717549E+02 -0.3902465E-02 -0.7657037E-03
  0.8900001E+01 -0.2154563E-02  0.1839630E-03  0.6870245E+05  0.3274955E+01 -0.3902465E-02 -0.7768599E-05
  0.9000000E+01 -0.2154563E-02  0.5343948E-03  0.6870245E+05 -0.4926126E+02 -0.3902465E-02  0.6998392E-03
  0.9100000E+01 -0.2154563E-02  0.8455836E-03  0.6870245E+05 -0.8597337E+02 -0.3902465E-02  0.1338911E-02
  0.9200000E+01 -0.2154563E-02  0.1110244E-02  0.6870245E+05 -0.1040491E+03 -0.3902465E-02  0.1895495E-02
  0.9300000E+01 -0.2154563E-02  0.1323523E-02  0.6870245E+05 -0.1025614E+03 -0.3902465E-02  0.2359718E-02
  0.9400001E+01 -0.2154563E-02  0.1482810E-02  0.6870245E+05 -0.8252747E+02 -0.3902465E-02  0.2725331E-02
  0.9500000E+01 -0.2154563E-02  0.1587493E-02  0.6870245E+05 -0.4677825E+02 -0.3902465E-02  0.2989234E-02
  0.9600000E+01 -0.2154563E-02  0.1638628E-02  0.6870245E+05  0.3719411E+00 -0.3902465E-02  0.3150913E-02
  0.9700000E+01 -0.2154563E-02  0.1638618E-02  0.6870245E+05  0.5356565E+02 -0.3902465E-02  0.3211985E-02
  0.9800000E+01 -0.2154563E-02  0.1590894E-02  0.6870245E+05  0.1069623E+03 -0.3902465E-02  0.3175810E-02
  0.9900001E+01 -0.2154563E-02  0.1499654E-02  0.6870245E+05  0.1548359E+03 -0.3902465E-02  0.3047246E-02
  0.1000000E+02 -0.2154563E-02  0.1369681E-02  0.6870245E+05  0.1921198E+03 -0.3902465E-02  0.2832594E-02
  0.1010000E+02 -0.2154563E-02  0.1206193E-02  0.6870245E+05  0.2149426E+03 -0.3902465E-02  0.2539560E-02
  0.1020000E+02 -0.2154563E-02  0.1014793E-02  0.6870245E+05  0.2209357E+03 -0.3902465E-02  0.2177405E-02
  0.1030000E+02 -0.2154563E-02  0.8014378E-03  0.6870245E+05  0.2094942E+03 -0.3902465E-02  0.1757039E-02
  0.1040000E+02 -0.2154563E-02  0.5724396E-03  0.6870245E+05  0.1817694E+03 -0.3902465E-02  0.1291121E-02
  0.1050000E+02 -0.2154563E-02  0.3345017E-03  0.6870245E+05  0.1405488E+03 -0.3902465E-02  0.7941110E-03
  0.1060000E+02 -0.2154563E-02  0.9463371E-04  0.6870245E+05  0.8992585E+02 -0.3902465E-02  0.2820224E-03
  0.1070000E+02 -0.2154563E-02 -0.1398682E-03  0.6870245E+05  0.3489469E+02 -0.3902465E-02 -0.2277933E-03
  0.1080000E+02 -0.2154563E-02 -0.3615961E-03  0.6870245E+05 -0.1919515E+02 -0.3902465E-02 -0.7172328E-03
  0.1090000E+02 -0.2154563E-02 -0.5632119E-03  0.6870245E+05 -0.6713675E+02 -0.3902465E-02 -0.1168071E-02
  0.1100000E+02 -0.2154563E-02 -0.7377490E-03  0.6870245E+05 -0.1044174E+03 -0.3902465E-02 -0.1562850E-02
  0.1110000E+02 -0.2154563E-02 -0.8789293E-03  0.6870245E+05 -0.1276446E+03 -0.3902465E-02 -0.1885797E-02
  0.1120000E+02 -0.2154563E-02 -0.9815170E-03  0.6870245E+05 -0.1348614E+03 -0.3902465E-02 -0.2123756E-02
  0.1130000E+02 -0.2154563E-02 -0.1041694E-02  0.6870245E+05 -0.1257136E+03 -0.3902465E-02 -0.2267136E-02
  0.1140000E+02 -0.2154563E-02 -0.1057358E-02  0.6870245E+05 -0.1014810E+03 -0.3902465E-02 -0.2310608E-02
  0.1150000E+02 -0.2154563E-02 -0.1028398E-02  0.6870245E+05 -0.6489936E+02 -0.3902465E-02 -0.2253704E-02
  0.1160000E+02 -0.2154563E-02 -0.9568289E-03  0.6870245E+05 -0.1987698E+02 -0.3902465E-02 -0.2101031E-02
  0.1170000E+02 -0.2154563E-02 -0.8468237E-03  0.6870245E+05  0.2890138E+02 -0.3902465E-02 -0.1862238E-02