VARIABLES="w (rad/s)"
"abs(F   1   1)" "angle(F   1   1)"
"abs(F   1   2)" "angle(F   1   2)"
"abs(F   1   3)" "angle(F   1   3)"
Zone t="Diffraction force - beta =   0.000 deg",I=    32,F=POINT
  0.1000000E+00  0.3807077E+03 -0.1570796E+01  0.1093820E+04 -0.3131239E+01  0.1486055E+04 -0.1570796E+01
  0.2000000E+00  0.1516755E+04 -0.1570790E+01  0.4480108E+04 -0.3102164E+01  0.5920035E+04 -0.1570790E+01
  0.3000000E+00  0.3377827E+04 -0.1570725E+01  0.1027356E+05 -0.3058180E+01  0.1319297E+05 -0.1570724E+01
  0.4000000E+00  0.5909487E+04 -0.1570409E+01  0.1847314E+05 -0.3003588E+01  0.2309718E+05 -0.1570401E+01
  0.5000000E+00  0.9050798E+04 -0.1569373E+01  0.2888409E+05 -0.2942294E+01  0.3540721E+05 -0.1569346E+01
  0.6000001E+00  0.1271877E+05 -0.1566751E+01  0.4114475E+05 -0.2877711E+01  0.4981406E+05 -0.1566675E+01
  0.7000000E+00  0.1684783E+05 -0.1561207E+01  0.5479049E+05 -0.2812762E+01  0.6608697E+05 -0.1561030E+01
  0.8000001E+00  0.2118701E+05 -0.1550875E+01  0.6929099E+05 -0.2749756E+01  0.8320250E+05 -0.1550505E+01
  0.9000000E+00  0.2571123E+05 -0.1533753E+01  0.8404912E+05 -0.2689744E+01  0.1011430E+06 -0.1533076E+01
  0.1000000E+01  0.2994754E+05 -0.1507536E+01  0.9863680E+05 -0.2634538E+01  0.1179575E+06 -0.1506369E+01
  0.1100000E+01  0.3370089E+05 -0.1470943E+01  0.1125230E+06 -0.2583771E+01  0.1329593E+06 -0.1469105E+01
  0.1200000E+01  0.3620562E+05 -0.1422314E+01  0.1253603E+06 -0.2538515E+01  0.1429785E+06 -0.1419469E+01
  0.1300000E+01  0.3699354E+05 -0.1362671E+01  0.1368484E+06 -0.2498787E+01  0.1461984E+06 -0.1358457E+01
  0.1400000E+01  0.3545807E+05 -0.1293531E+01  0.1466574E+06 -0.2464046E+01  0.1401227E+06 -0.1287353E+01
  0.1500000E+01  0.3116774E+05 -0.1218057E+01  0.1545587E+06 -0.2434147E+01  0.1229656E+06 -0.1208828E+01
  0.1600000E+01  0.2392907E+05 -0.1139031E+01  0.1603620E+06 -0.2408951E+01  0.9390977E+05 -0.1124185E+01
  0.1700000E+01  0.1390346E+05 -0.1056446E+01  0.1639168E+06 -0.2388379E+01  0.5355716E+05 -0.1026138E+01
  0.1800000E+01  0.1551196E+04 -0.8445393E+00  0.1651029E+06 -0.2372300E+01  0.4455345E+04 -0.3500990E+00
  0.1900000E+01  0.1256412E+05  0.2183562E+01  0.1638588E+06 -0.2360676E+01  0.5359478E+05  0.2151515E+01
  0.2000000E+01  0.2768069E+05  0.2251448E+01  0.1601509E+06 -0.2353653E+01  0.1149047E+06  0.2236643E+01
  0.2100000E+01  0.4311702E+05  0.2304259E+01  0.1539896E+06 -0.2351559E+01  0.1776611E+06  0.2295445E+01
  0.2200000E+01  0.5819090E+05  0.2348341E+01  0.1454834E+06 -0.2354825E+01  0.2390631E+06  0.2342762E+01
  0.2300000E+01  0.7225805E+05  0.2384954E+01  0.1347502E+06 -0.2364595E+01  0.2964562E+06  0.2381528E+01
  0.2400000E+01  0.8471705E+05  0.2414863E+01  0.1219471E+06 -0.2382958E+01  0.3473505E+06  0.2413064E+01
  0.2500000E+01  0.9502664E+05  0.2439135E+01  0.1073192E+06 -0.2414793E+01  0.3894966E+06  0.2438692E+01
  0.2600000E+01  0.1026757E+06  0.2457774E+01  0.9033075E+05 -0.2481365E+01  0.4207834E+06  0.2458513E+01
  0.2700000E+01  0.1072501E+06  0.2471065E+01  0.8533259E+05 -0.1982595E+01  0.4394610E+06  0.2472935E+01
  0.2800000E+01  0.1084408E+06  0.2478964E+01  0.6243142E+05 -0.2488063E+01  0.4442505E+06  0.2481961E+01
  0.2900000E+01  0.1060737E+06  0.2481016E+01  0.4555752E+05 -0.2636414E+01  0.4344147E+06  0.2485213E+01
  0.3000000E+01  0.1000413E+06  0.2475033E+01  0.3094511E+05 -0.2872924E+01  0.4095071E+06  0.2480566E+01
  0.3100000E+01  0.9033457E+05  0.2455766E+01  0.2041511E+05  0.2943304E+01  0.3695156E+06  0.2462873E+01
  0.3200000E+01  0.7608986E+05  0.2390013E+01  0.1795805E+05  0.2210588E+01  0.3111374E+06  0.2398948E+01
