 VARIABLES="Time (s)"
"AddedMass    1" "IRF    1"
"AddedMass    2" "IRF    2"
"AddedMass    3" "IRF    3"
Zone t="DoF    1",I=   160,F=POINT
  0.0000000E+00  0.2747396E+05  0.5324720E+05 -0.1152738E-02 -0.6501494E-02  0.1054493E+06  0.2175213E+06
  0.1000000E+00  0.2747396E+05  0.5177898E+05 -0.1152738E-02 -0.6443276E-02  0.1054493E+06  0.2115089E+06
  0.2000000E+00  0.2747396E+05  0.4746994E+05 -0.1152738E-02 -0.6268500E-02  0.1054493E+06  0.1938636E+06
  0.3000000E+00  0.2747396E+05  0.4059989E+05 -0.1152738E-02 -0.5976970E-02  0.1054493E+06  0.1657332E+06
  0.4000000E+00  0.2747396E+05  0.3161268E+05 -0.1152738E-02 -0.5568859E-02  0.1054493E+06  0.1289379E+06
  0.5000000E+00  0.2747396E+05  0.2108408E+05 -0.1152738E-02 -0.5045401E-02  0.1054493E+06  0.8583895E+05
  0.6000000E+00  0.2747396E+05  0.9680425E+04 -0.1152738E-02 -0.4409756E-02  0.1054493E+06  0.3916858E+05
  0.7000000E+00  0.2747396E+05 -0.1888630E+04 -0.1152738E-02 -0.3667917E-02  0.1054493E+06 -0.8163937E+04
  0.8000000E+00  0.2747396E+05 -0.1292006E+05 -0.1152738E-02 -0.2829564E-02  0.1054493E+06 -0.5327709E+05
  0.9000000E+00  0.2747396E+05 -0.2276583E+05 -0.1152738E-02 -0.1908747E-02  0.1054493E+06 -0.9351570E+05
  0.1000000E+01  0.2747396E+05 -0.3087638E+05 -0.1152738E-02 -0.9242980E-03  0.1054493E+06 -0.1266294E+06
  0.1100000E+01  0.2747396E+05 -0.3683589E+05 -0.1152738E-02  0.1001409E-03  0.1054493E+06 -0.1509170E+06
  0.1200000E+01  0.2747396E+05 -0.4038686E+05 -0.1152738E-02  0.1136488E-02  0.1054493E+06 -0.1653275E+06
  0.1300000E+01  0.2747396E+05 -0.4144230E+05 -0.1152738E-02  0.2153039E-02  0.1054493E+06 -0.1695097E+06
  0.1400000E+01  0.2747396E+05 -0.4008523E+05 -0.1152738E-02  0.3115699E-02  0.1054493E+06 -0.1638098E+06
  0.1500000E+01  0.2747396E+05 -0.3655539E+05 -0.1152738E-02  0.3989576E-02  0.1054493E+06 -0.1492169E+06
  0.1600000E+01  0.2747396E+05 -0.3122511E+05 -0.1152738E-02  0.4740817E-02  0.1054493E+06 -0.1272631E+06
  0.1700000E+01  0.2747396E+05 -0.2456609E+05 -0.1152738E-02  0.5338599E-02  0.1054493E+06 -0.9988779E+05
  0.1800000E+01  0.2747396E+05 -0.1711031E+05 -0.1152738E-02  0.5757102E-02  0.1054493E+06 -0.6927595E+05
  0.1900000E+01  0.2747396E+05 -0.9408115E+04 -0.1152738E-02  0.5977313E-02  0.1054493E+06 -0.3768668E+05
  0.2000000E+01  0.2747396E+05 -0.1986937E+04 -0.1152738E-02  0.5988534E-02  0.1054493E+06 -0.7283559E+04
  0.2100000E+01  0.2747396E+05  0.4686106E+04 -0.1152738E-02  0.5789438E-02  0.1054493E+06  0.2001898E+05
  0.2200000E+01  0.2747396E+05  0.1023503E+05 -0.1152738E-02  0.5388586E-02  0.1054493E+06  0.4268201E+05
  0.2300000E+01  0.2747396E+05  0.1439714E+05 -0.1152738E-02  0.4804330E-02  0.1054493E+06  0.5963275E+05
  0.2400000E+01  0.2747396E+05  0.1703489E+05 -0.1152738E-02  0.4064091E-02  0.1054493E+06  0.7031301E+05
  0.2500000E+01  0.2747396E+05  0.1813735E+05 -0.1152738E-02  0.3203036E-02  0.1054493E+06  0.7468482E+05
  0.2600000E+01  0.2747396E+05  0.1781140E+05 -0.1152738E-02  0.2262202E-02  0.1054493E+06  0.7319405E+05
  0.2700000E+01  0.2747396E+05  0.1626411E+05 -0.1152738E-02  0.1286236E-02  0.1054493E+06  0.6669748E+05
  0.2800000E+01  0.2747396E+05  0.1377810E+05 -0.1152738E-02  0.3208323E-03  0.1054493E+06  0.5636132E+05
  0.2900000E+01  0.2747396E+05  0.1068227E+05 -0.1152738E-02 -0.5899178E-03  0.1054493E+06  0.4354091E+05
  0.3000000E+01  0.2747396E+05  0.7320840E+04 -0.1152738E-02 -0.1406075E-02  0.1054493E+06  0.2965309E+05
  0.3100000E+01  0.2747396E+05  0.4023066E+04 -0.1152738E-02 -0.2094181E-02  0.1054493E+06  0.1605186E+05
  0.3200000E+01  0.2747396E+05  0.1076448E+04 -0.1152738E-02 -0.2629117E-02  0.1054493E+06  0.3918331E+04
  0.3300000E+01  0.2747396E+05 -0.1294664E+04 -0.1152738E-02 -0.2995446E-02  0.1054493E+06 -0.5827154E+04
  0.3400000E+01  0.2747396E+05 -0.2943392E+04 -0.1152738E-02 -0.3188080E-02  0.1054493E+06 -0.1258367E+05
  0.3500000E+01  0.2747396E+05 -0.3806848E+04 -0.1152738E-02 -0.3212259E-02  0.1054493E+06 -0.1609623E+05
  0.3600000E+01  0.2747396E+05 -0.3904717E+04 -0.1152738E-02 -0.3082850E-02  0.1054493E+06 -0.1644970E+05
  0.3700000E+01  0.2747396E+05 -0.3330475E+04 -0.1152738E-02 -0.2822995E-02  0.1054493E+06 -0.1403246E+05
  0.3800000E+01  0.2747396E+05 -0.2236480E+04 -0.1152738E-02 -0.2462229E-02  0.1054493E+06 -0.9474809E+04
  0.3900000E+01  0.2747396E+05 -0.8146453E+03 -0.1152738E-02 -0.2034205E-02  0.1054493E+06 -0.3569275E+04
  0.4000000E+01  0.2747396E+05  0.7252568E+03 -0.1152738E-02 -0.1574194E-02  0.1054493E+06  0.2818697E+04
  0.4100000E+01  0.2747396E+05  0.2177611E+04 -0.1152738E-02 -0.1116534E-02  0.1054493E+06  0.8841478E+04
  0.4200000E+01  0.2747396E+05  0.3361148E+04 -0.1152738E-02 -0.6922235E-03  0.1054493E+06  0.1375222E+05
  0.4300000E+01  0.2747396E+05  0.4135534E+04 -0.1152738E-02 -0.3268460E-03  0.1054493E+06  0.1697314E+05
  0.4400000E+01  0.2747396E+05  0.4413099E+04 -0.1152738E-02 -0.3891604E-04  0.1054493E+06  0.1814368E+05
  0.4500000E+01  0.2747396E+05  0.4164741E+04 -0.1152738E-02  0.1611584E-03  0.1054493E+06  0.1714463E+05
  0.4600000E+01  0.2747396E+05  0.3419743E+04 -0.1152738E-02  0.2715037E-03  0.1054493E+06  0.1409729E+05
  0.4700000E+01  0.2747396E+05  0.2259945E+04 -0.1152738E-02  0.2985343E-03  0.1054493E+06  0.9339359E+04
  0.4800000E+01  0.2747396E+05  0.8089886E+03 -0.1152738E-02  0.2560968E-03  0.1054493E+06  0.3380519E+04
  0.4900000E+01  0.2747396E+05 -0.7820377E+03 -0.1152738E-02  0.1640477E-03  0.1054493E+06 -0.3156698E+04
  0.5000000E+01  0.2747396E+05 -0.2351089E+04 -0.1152738E-02  0.4642106E-04  0.1054493E+06 -0.9604878E+04
  0.5100000E+01  0.2747396E+05 -0.3741913E+04 -0.1152738E-02 -0.7070283E-04  0.1054493E+06 -0.1532065E+05
  0.5200000E+01  0.2747396E+05 -0.4819628E+04 -0.1152738E-02 -0.1614321E-03  0.1054493E+06 -0.1974886E+05
  0.5300000E+01  0.2747396E+05 -0.5483514E+04 -0.1152738E-02 -0.2022450E-03  0.1054493E+06 -0.2247510E+05
  0.5400000E+01  0.2747396E+05 -0.5676043E+04 -0.1152738E-02 -0.1739473E-03  0.1054493E+06 -0.2326288E+05
  0.5500000E+01  0.2747396E+05 -0.5387139E+04 -0.1152738E-02 -0.6326636E-04  0.1054493E+06 -0.2207113E+05
  0.5600000E+01  0.2747396E+05 -0.4653806E+04 -0.1152738E-02  0.1360350E-03  0.1054493E+06 -0.1905248E+05
  0.5700000E+01  0.2747396E+05 -0.3554995E+04 -0.1152738E-02  0.4226102E-03  0.1054493E+06 -0.1453220E+05
  0.5800000E+01  0.2747396E+05 -0.2202623E+04 -0.1152738E-02  0.7875474E-03  0.1054493E+06 -0.8971066E+04
  0.5900000E+01  0.2747396E+05 -0.7296144E+03 -0.1152738E-02  0.1214984E-02  0.1054493E+06 -0.2916190E+04
  0.6000000E+01  0.2747396E+05  0.7237401E+03 -0.1152738E-02  0.1683222E-02  0.1054493E+06  0.3055248E+04
  0.6100000E+01  0.2747396E+05  0.2023611E+04 -0.1152738E-02  0.2166274E-02  0.1054493E+06  0.8392829E+04
  0.6200000E+01  0.2747396E+05  0.3055460E+04 -0.1152738E-02  0.2635704E-02  0.1054493E+06  0.1262570E+05
  0.6300000E+01  0.2747396E+05  0.3734466E+04 -0.1152738E-02  0.3062617E-02  0.1054493E+06  0.1540546E+05
  0.6400000E+01  0.2747396E+05  0.4012829E+04 -0.1152738E-02  0.3419687E-02  0.1054493E+06  0.1653619E+05
  0.6500000E+01  0.2747396E+05  0.3883127E+04 -0.1152738E-02  0.3682983E-02  0.1054493E+06  0.1598813E+05
  0.6600000E+01  0.2747396E+05  0.3377631E+04 -0.1152738E-02  0.3833588E-02  0.1054493E+06  0.1389487E+05
  0.6700000E+01  0.2747396E+05  0.2563816E+04 -0.1152738E-02  0.3858788E-02  0.1054493E+06  0.1053474E+05
  0.6800000E+01  0.2747396E+05  0.1536574E+04 -0.1152738E-02  0.3752822E-02  0.1054493E+06  0.6298794E+04
  0.6900000E+01  0.2747396E+05  0.4079334E+03 -0.1152738E-02  0.3517144E-02  0.1054493E+06  0.1648360E+04
  0.7000000E+01  0.2747396E+05 -0.7045122E+03 -0.1152738E-02  0.3160170E-02  0.1054493E+06 -0.2932524E+04
  0.7100000E+01  0.2747396E+05 -0.1689285E+04 -0.1152738E-02  0.2696584E-02  0.1054493E+06 -0.6985213E+04
  0.7200000E+01  0.2747396E+05 -0.2451863E+04 -0.1152738E-02  0.2146231E-02  0.1054493E+06 -0.1012105E+05
  0.7300000E+01  0.2747396E+05 -0.2923329E+04 -0.1152738E-02  0.1532741E-02  0.1054493E+06 -0.1205696E+05
  0.7400000E+01  0.2747396E+05 -0.3066399E+04 -0.1152738E-02  0.8819481E-03  0.1054493E+06 -0.1264009E+05
  0.7500000E+01  0.2747396E+05 -0.2878011E+04 -0.1152738E-02  0.2202462E-03  0.1054493E+06 -0.1185856E+05
  0.7600000E+01  0.2747396E+05 -0.2388503E+04 -0.1152738E-02 -0.4269741E-03  0.1054493E+06 -0.9837892E+04
  0.7700000E+01  0.2747396E+05 -0.1657514E+04 -0.1152738E-02 -0.1036757E-02  0.1054493E+06 -0.6824157E+04
  0.7800000E+01  0.2747396E+05 -0.7671483E+03 -0.1152738E-02 -0.1589706E-02  0.1054493E+06 -0.3155732E+04
  0.7900000E+01  0.2747396E+05  0.1869800E+03 -0.1152738E-02 -0.2070856E-02  0.1054493E+06  0.7735452E+03
  0.8000000E+01  0.2747396E+05  0.1105590E+04 -0.1152738E-02 -0.2470115E-02  0.1054493E+06  0.4554957E+04
  0.8100000E+01  0.2747396E+05  0.1895909E+04 -0.1152738E-02 -0.2782380E-02  0.1054493E+06  0.7806729E+04
  0.8200000E+01  0.2747396E+05  0.2480598E+04 -0.1152738E-02 -0.3007284E-02  0.1054493E+06  0.1021081E+05
  0.8300000E+01  0.2747396E+05  0.2805161E+04 -0.1152738E-02 -0.3148658E-02  0.1054493E+06  0.1154329E+05
  0.8400001E+01  0.2747396E+05  0.2842688E+04 -0.1152738E-02 -0.3213744E-02  0.1054493E+06  0.1169388E+05
  0.8500000E+01  0.2747396E+05  0.2595828E+04 -0.1152738E-02 -0.3212257E-02  0.1054493E+06  0.1067403E+05
  0.8600000E+01  0.2747396E+05  0.2095698E+04 -0.1152738E-02 -0.3155391E-02  0.1054493E+06  0.8612303E+04
  0.8700000E+01  0.2747396E+05  0.1398044E+04 -0.1152738E-02 -0.3054815E-02  0.1054493E+06  0.5738565E+04
  0.8800000E+01  0.2747396E+05  0.5769856E+03 -0.1152738E-02 -0.2921782E-02  0.1054493E+06  0.2358222E+04
  0.8900001E+01  0.2747396E+05 -0.2827643E+03 -0.1152738E-02 -0.2766398E-02  0.1054493E+06 -0.1179891E+04
  0.9000000E+01  0.2747396E+05 -0.1094776E+04 -0.1152738E-02 -0.2597063E-02  0.1054493E+06 -0.4520017E+04
  0.9100000E+01  0.2747396E+05 -0.1779439E+04 -0.1152738E-02 -0.2420172E-02  0.1054493E+06 -0.7334641E+04
  0.9200000E+01  0.2747396E+05 -0.2271770E+04 -0.1152738E-02 -0.2240019E-02  0.1054493E+06 -0.9356584E+04
  0.9300000E+01  0.2747396E+05 -0.2527579E+04 -0.1152738E-02 -0.2058913E-02  0.1054493E+06 -0.1040437E+05
  0.9400001E+01  0.2747396E+05 -0.2527275E+04 -0.1152738E-02 -0.1877485E-02  0.1054493E+06 -0.1039782E+05
  0.9500000E+01  0.2747396E+05 -0.2277280E+04 -0.1152738E-02 -0.1695104E-02  0.1054493E+06 -0.9363875E+04
  0.9600000E+01  0.2747396E+05 -0.1808719E+04 -0.1152738E-02 -0.1510375E-02  0.1054493E+06 -0.7431100E+04
  0.9700000E+01  0.2747396E+05 -0.1173707E+04 -0.1152738E-02 -0.1321664E-02  0.1054493E+06 -0.4814380E+04
  0.9800000E+01  0.2747396E+05 -0.4396498E+03 -0.1152738E-02 -0.1127560E-02  0.1054493E+06 -0.1791440E+04
  0.9900001E+01  0.2747396E+05  0.3178365E+03 -0.1152738E-02 -0.9272960E-03  0.1054493E+06  0.1326356E+04
  0.1000000E+02  0.2747396E+05  0.1022648E+04 -0.1152738E-02 -0.7210132E-03  0.1054493E+06  0.4225789E+04
  0.1010000E+02  0.2747396E+05  0.1605858E+04 -0.1152738E-02 -0.5099163E-03  0.1054493E+06  0.6623314E+04
  0.1020000E+02  0.2747396E+05  0.2012309E+04 -0.1152738E-02 -0.2962803E-03  0.1054493E+06  0.8292212E+04
  0.1030000E+02  0.2747396E+05  0.2205881E+04 -0.1152738E-02 -0.8332630E-04  0.1054493E+06  0.9084214E+04
  0.1040000E+02  0.2747396E+05  0.2172542E+04 -0.1152738E-02  0.1250068E-03  0.1054493E+06  0.8942025E+04
  0.1050000E+02  0.2747396E+05  0.1921337E+04 -0.1152738E-02  0.3243671E-03  0.1054493E+06  0.7903336E+04
  0.1060000E+02  0.2747396E+05  0.1482792E+04 -0.1152738E-02  0.5103587E-03  0.1054493E+06  0.6094243E+04
  0.1070000E+02  0.2747396E+05  0.9054864E+03 -0.1152738E-02  0.6788594E-03  0.1054493E+06  0.3715067E+04
  0.1080000E+02  0.2747396E+05  0.2506676E+03 -0.1152738E-02  0.8263712E-03  0.1054493E+06  0.1018153E+04
  0.1090000E+02  0.2747396E+05 -0.4140548E+03 -0.1152738E-02  0.9502436E-03  0.1054493E+06 -0.1718089E+04
  0.1100000E+02  0.2747396E+05 -0.1021691E+04 -0.1152738E-02  0.1048841E-02  0.1054493E+06 -0.4217953E+04
  0.1110000E+02  0.2747396E+05 -0.1512555E+04 -0.1152738E-02  0.1121618E-02  0.1054493E+06 -0.6235920E+04
  0.1120000E+02  0.2747396E+05 -0.1840002E+04 -0.1152738E-02  0.1169074E-02  0.1054493E+06 -0.7580287E+04
  0.1130000E+02  0.2747396E+05 -0.1974859E+04 -0.1152738E-02  0.1192617E-02  0.1054493E+06 -0.8131339E+04
  0.1140000E+02  0.2747396E+05 -0.1907884E+04 -0.1152738E-02  0.1194393E-02  0.1054493E+06 -0.7851457E+04
  0.1150000E+02  0.2747396E+05 -0.1650312E+04 -0.1152738E-02  0.1177021E-02  0.1054493E+06 -0.6787327E+04
  0.1160000E+02  0.2747396E+05 -0.1232176E+04 -0.1152738E-02  0.1143369E-02  0.1054493E+06 -0.5062954E+04
  0.1170000E+02  0.2747396E+05 -0.6989849E+03 -0.1152738E-02  0.1096294E-02  0.1054493E+06 -0.2865996E+04
  0.1180000E+02  0.2747396E+05 -0.1067277E+03 -0.1152738E-02  0.1038449E-02  0.1054493E+06 -0.4271091E+03
  0.1190000E+02  0.2747396E+05  0.4838790E+03 -0.1152738E-02  0.9721828E-03  0.1054493E+06  0.2003680E+04
  0.1200000E+02  0.2747396E+05  0.1013603E+04 -0.1152738E-02  0.8994345E-03  0.1054493E+06  0.4182621E+04
  0.1210000E+02  0.2747396E+05  0.1430653E+04 -0.1152738E-02  0.8217955E-03  0.1054493E+06  0.5896688E+04
  0.1220000E+02  0.2747396E+05  0.1695567E+04 -0.1152738E-02  0.7405909E-03  0.1054493E+06  0.6983728E+04
  0.1230000E+02  0.2747396E+05  0.1785035E+04 -0.1152738E-02  0.6570147E-03  0.1054493E+06  0.7348154E+04
  0.1240000E+02  0.2747396E+05  0.1693789E+04 -0.1152738E-02  0.5723399E-03  0.1054493E+06  0.6968674E+04
  0.1250000E+02  0.2747396E+05  0.1434839E+04 -0.1152738E-02  0.4880812E-03  0.1054493E+06  0.5899229E+04
  0.1260000E+02  0.2747396E+05  0.1037598E+04 -0.1152738E-02  0.4061944E-03  0.1054493E+06  0.4261260E+04
  0.1270000E+02  0.2747396E+05  0.5448450E+03 -0.1152738E-02  0.3291536E-03  0.1054493E+06  0.2231130E+04
  0.1280000E+02  0.2747396E+05  0.7907389E+01 -0.1152738E-02  0.2600351E-03  0.1054493E+06  0.2029226E+02
  0.1290000E+02  0.2747396E+05 -0.5184590E+03 -0.1152738E-02  0.2024469E-03  0.1054493E+06 -0.2145805E+04
  0.1300000E+02  0.2747396E+05 -0.9817771E+03 -0.1152738E-02  0.1604180E-03  0.1054493E+06 -0.4051214E+04
  0.1310000E+02  0.2747396E+05 -0.1336925E+04 -0.1152738E-02  0.1381357E-03  0.1054493E+06 -0.5510388E+04
  0.1320000E+02  0.2747396E+05 -0.1550607E+04 -0.1152738E-02  0.1396713E-03  0.1054493E+06 -0.6386560E+04
  0.1330000E+02  0.2747396E+05 -0.1604387E+04 -0.1152738E-02  0.1686019E-03  0.1054493E+06 -0.6604168E+04
  0.1340000E+02  0.2747396E+05 -0.1496209E+04 -0.1152738E-02  0.2276357E-03  0.1054493E+06 -0.6155146E+04
  0.1350000E+02  0.2747396E+05 -0.1240302E+04 -0.1152738E-02  0.3182302E-03  0.1054493E+06 -0.5098431E+04
  0.1360000E+02  0.2747396E+05 -0.8654008E+03 -0.1152738E-02  0.4402716E-03  0.1054493E+06 -0.3552623E+04
  0.1370000E+02  0.2747396E+05 -0.4115457E+03 -0.1152738E-02  0.5918197E-03  0.1054493E+06 -0.1682811E+04
  0.1380000E+02  0.2747396E+05  0.7412921E+02 -0.1152738E-02  0.7690010E-03  0.1054493E+06  0.3168557E+03
  0.1390000E+02  0.2747396E+05  0.5422516E+03 -0.1152738E-02  0.9659625E-03  0.1054493E+06  0.2243103E+04
  0.1400000E+02  0.2747396E+05  0.9462887E+03 -0.1152738E-02  0.1175055E-02  0.1054493E+06  0.3904473E+04
  0.1410000E+02  0.2747396E+05  0.1247075E+04 -0.1152738E-02  0.1387073E-02  0.1054493E+06  0.5139932E+04
  0.1420000E+02  0.2747396E+05  0.1416539E+04 -0.1152738E-02  0.1591694E-02  0.1054493E+06  0.5834220E+04
  0.1430000E+02  0.2747396E+05  0.1440413E+04 -0.1152738E-02  0.1777981E-02  0.1054493E+06  0.5928928E+04
  0.1440000E+02  0.2747396E+05  0.1319276E+04 -0.1152738E-02  0.1934958E-02  0.1054493E+06  0.5426811E+04
  0.1450000E+02  0.2747396E+05  0.1068254E+04 -0.1152738E-02  0.2052244E-02  0.1054493E+06  0.4390481E+04
  0.1460000E+02  0.2747396E+05  0.7151286E+03 -0.1152738E-02  0.2120645E-02  0.1054493E+06  0.2934594E+04
  0.1470000E+02  0.2747396E+05  0.2974539E+03 -0.1152738E-02  0.2132689E-02  0.1054493E+06  0.1213969E+04
  0.1480000E+02  0.2747396E+05 -0.1416662E+03 -0.1152738E-02  0.2083112E-02  0.1054493E+06 -0.5938556E+03
  0.1490000E+02  0.2747396E+05 -0.5576683E+03 -0.1152738E-02  0.1969153E-02  0.1054493E+06 -0.2305422E+04
  0.1500000E+02  0.2747396E+05 -0.9093758E+03 -0.1152738E-02  0.1790739E-02  0.1054493E+06 -0.3751329E+04
  0.1510000E+02  0.2747396E+05 -0.1162794E+04 -0.1152738E-02  0.1550472E-02  0.1054493E+06 -0.4791844E+04
  0.1520000E+02  0.2747396E+05 -0.1294507E+04 -0.1152738E-02  0.1253518E-02  0.1054493E+06 -0.5330858E+04
  0.1530000E+02  0.2747396E+05 -0.1293771E+04 -0.1152738E-02  0.9072319E-03  0.1054493E+06 -0.5324469E+04
  0.1540000E+02  0.2747396E+05 -0.1163328E+04 -0.1152738E-02  0.5207960E-03  0.1054493E+06 -0.4784321E+04
  0.1550000E+02  0.2747396E+05 -0.9188785E+03 -0.1152738E-02  0.1046406E-03  0.1054493E+06 -0.3775357E+04
  0.1560000E+02  0.2747396E+05 -0.5871638E+03 -0.1152738E-02 -0.3301160E-03  0.1054493E+06 -0.2407935E+04
  0.1570000E+02  0.2747396E+05 -0.2032793E+03 -0.1152738E-02 -0.7722372E-03  0.1054493E+06 -0.8267173E+03
  0.1580000E+02  0.2747396E+05  0.1933129E+03 -0.1152738E-02 -0.1210962E-02  0.1054493E+06  0.8057592E+03
  0.1590000E+02  0.2747396E+05  0.5626045E+03 -0.1152738E-02 -0.1636455E-02  0.1054493E+06  0.2324824E+04
Zone t="DoF    2",I=   160,F=POINT
  0.0000000E+00 -0.1465072E-02  0.1331673E-02  0.5804868E+05  0.9171534E+05 -0.8114730E-02 -0.8129805E-03
  0.1000000E+00 -0.1465072E-02  0.1284748E-02  0.5804868E+05  0.8985208E+05 -0.8114730E-02 -0.8554537E-03
  0.2000000E+00 -0.1465072E-02  0.1147432E-02  0.5804868E+05  0.8437044E+05 -0.8114730E-02 -0.9782112E-03
  0.3000000E+00 -0.1465072E-02  0.9298519E-03  0.5804868E+05  0.7558766E+05 -0.8114730E-02 -0.1167624E-02
  0.4000000E+00 -0.1465072E-02  0.6480694E-03  0.5804868E+05  0.6400807E+05 -0.8114730E-02 -0.1402128E-02
  0.5000000E+00 -0.1465072E-02  0.3229218E-03  0.5804868E+05  0.5028852E+05 -0.8114730E-02 -0.1653877E-02
  0.6000000E+00 -0.1465072E-02 -0.2148673E-04  0.5804868E+05  0.3519371E+05 -0.8114730E-02 -0.1890892E-02
  0.7000000E+00 -0.1465072E-02 -0.3595320E-03  0.5804868E+05  0.1954470E+05 -0.8114730E-02 -0.2079584E-02
  0.8000000E+00 -0.1465072E-02 -0.6659334E-03  0.5804868E+05  0.4164509E+04 -0.8114730E-02 -0.2187454E-02
  0.9000000E+00 -0.1465072E-02 -0.9175953E-03  0.5804868E+05 -0.1017503E+05 -0.8114730E-02 -0.2185807E-02
  0.1000000E+01 -0.1465072E-02 -0.1095301E-02  0.5804868E+05 -0.2280173E+05 -0.8114730E-02 -0.2052280E-02
  0.1100000E+01 -0.1465072E-02 -0.1185136E-02  0.5804868E+05 -0.3318288E+05 -0.8114730E-02 -0.1773002E-02
  0.1200000E+01 -0.1465072E-02 -0.1179528E-02  0.5804868E+05 -0.4095409E+05 -0.8114730E-02 -0.1344223E-02
  0.1300000E+01 -0.1465072E-02 -0.1077848E-02  0.5804868E+05 -0.4593513E+05 -0.8114730E-02 -0.7732773E-03
  0.1400000E+01 -0.1465072E-02 -0.8865066E-03  0.5804868E+05 -0.4813218E+05 -0.8114730E-02 -0.7879685E-04
  0.1500000E+01 -0.1465072E-02 -0.6185512E-03  0.5804868E+05 -0.4772657E+05 -0.8114730E-02  0.7098792E-03
  0.1600000E+01 -0.1465072E-02 -0.2927800E-03  0.5804868E+05 -0.4505150E+05 -0.8114730E-02  0.1554086E-02
  0.1700000E+01 -0.1465072E-02  0.6755550E-04  0.5804868E+05 -0.4055888E+05 -0.8114730E-02  0.2407942E-02
  0.1800000E+01 -0.1465072E-02  0.4363797E-03  0.5804868E+05 -0.3477922E+05 -0.8114730E-02  0.3221083E-02
  0.1900000E+01 -0.1465072E-02  0.7866331E-03  0.5804868E+05 -0.2827790E+05 -0.8114730E-02  0.3941845E-02
  0.2000000E+01 -0.1465072E-02  0.1092194E-02  0.5804868E+05 -0.2161137E+05 -0.8114730E-02  0.4520699E-02
  0.2100000E+01 -0.1465072E-02  0.1329748E-02  0.5804868E+05 -0.1528668E+05 -0.8114730E-02  0.4913729E-02
  0.2200000E+01 -0.1465072E-02  0.1480472E-02  0.5804868E+05 -0.9727271E+04 -0.8114730E-02  0.5085894E-02
  0.2300000E+01 -0.1465072E-02  0.1531409E-02  0.5804868E+05 -0.5247420E+04 -0.8114730E-02  0.5013849E-02
  0.2400000E+01 -0.1465072E-02  0.1476435E-02  0.5804868E+05 -0.2037020E+04 -0.8114730E-02  0.4688112E-02
  0.2500000E+01 -0.1465072E-02  0.1316753E-02  0.5804868E+05 -0.1571849E+03 -0.8114730E-02  0.4114393E-02
  0.2600000E+01 -0.1465072E-02  0.1060868E-02  0.5804868E+05  0.4534595E+03 -0.8114730E-02  0.3313955E-02
  0.2700000E+01 -0.1465072E-02  0.7240477E-03  0.5804868E+05 -0.3714154E+02 -0.8114730E-02  0.2322940E-02
  0.2800000E+01 -0.1465072E-02  0.3272980E-03  0.5804868E+05 -0.1378083E+04 -0.8114730E-02  0.1190661E-02
  0.2900000E+01 -0.1465072E-02 -0.1040670E-03  0.5804868E+05 -0.3264429E+04 -0.8114730E-02 -0.2308288E-04
  0.3000000E+01 -0.1465072E-02 -0.5421661E-03  0.5804868E+05 -0.5368775E+04 -0.8114730E-02 -0.1251478E-02
  0.3100000E+01 -0.1465072E-02 -0.9584903E-03  0.5804868E+05 -0.7372591E+04 -0.8114730E-02 -0.2424831E-02
  0.3200000E+01 -0.1465072E-02 -0.1325880E-02  0.5804868E+05 -0.8994712E+04 -0.8114730E-02 -0.3474999E-02
  0.3300000E+01 -0.1465072E-02 -0.1620434E-02  0.5804868E+05 -0.1001469E+05 -0.8114730E-02 -0.4339941E-02
  0.3400000E+01 -0.1465072E-02 -0.1823175E-02  0.5804868E+05 -0.1028923E+05 -0.8114730E-02 -0.4967951E-02
  0.3500000E+01 -0.1465072E-02 -0.1921387E-02  0.5804868E+05 -0.9760742E+04 -0.8114730E-02 -0.5321369E-02
  0.3600000E+01 -0.1465072E-02 -0.1909506E-02  0.5804868E+05 -0.8457596E+04 -0.8114730E-02 -0.5379438E-02
  0.3700000E+01 -0.1465072E-02 -0.1789506E-02  0.5804868E+05 -0.6486657E+04 -0.8114730E-02 -0.5140068E-02
  0.3800000E+01 -0.1465072E-02 -0.1570749E-02  0.5804868E+05 -0.4018971E+04 -0.8114730E-02 -0.4620384E-02
  0.3900000E+01 -0.1465072E-02 -0.1269311E-02  0.5804868E+05 -0.1270403E+04 -0.8114730E-02 -0.3855940E-02
  0.4000000E+01 -0.1465072E-02 -0.9068267E-03  0.5804868E+05  0.1520804E+04 -0.8114730E-02 -0.2898630E-02
  0.4100000E+01 -0.1465072E-02 -0.5089295E-03  0.5804868E+05  0.4117525E+04 -0.8114730E-02 -0.1813386E-02
  0.4200000E+01 -0.1465072E-02 -0.1034070E-03  0.5804868E+05  0.6305911E+04 -0.8114730E-02 -0.6738805E-03
  0.4300000E+01 -0.1465072E-02  0.2817939E-03  0.5804868E+05  0.7914369E+04 -0.8114730E-02  0.4424699E-03
  0.4400000E+01 -0.1465072E-02  0.6205975E-03  0.5804868E+05  0.8827912E+04 -0.8114730E-02  0.1459953E-02
  0.4500000E+01 -0.1465072E-02  0.8906744E-03  0.5804868E+05  0.8996623E+04 -0.8114730E-02  0.2309936E-02
  0.4600000E+01 -0.1465072E-02  0.1075054E-02  0.5804868E+05  0.8437735E+04 -0.8114730E-02  0.2935892E-02
  0.4700000E+01 -0.1465072E-02  0.1163357E-02  0.5804868E+05  0.7231660E+04 -0.8114730E-02  0.3297646E-02
  0.4800000E+01 -0.1465072E-02  0.1152532E-02  0.5804868E+05  0.5512289E+04 -0.8114730E-02  0.3374505E-02
  0.4900000E+01 -0.1465072E-02  0.1047070E-02  0.5804868E+05  0.3452947E+04 -0.8114730E-02  0.3167058E-02
  0.5000000E+01 -0.1465072E-02  0.8586531E-03  0.5804868E+05  0.1249276E+04 -0.8114730E-02  0.2697387E-02
  0.5100000E+01 -0.1465072E-02  0.6052742E-03  0.5804868E+05 -0.8990515E+03 -0.8114730E-02  0.2007751E-02
  0.5200000E+01 -0.1465072E-02  0.3098836E-03  0.5804868E+05 -0.2806275E+04 -0.8114730E-02  0.1157684E-02
  0.5300000E+01 -0.1465072E-02 -0.1335085E-05  0.5804868E+05 -0.4316402E+04 -0.8114730E-02  0.2197934E-03
  0.5400000E+01 -0.1465072E-02 -0.3009539E-03  0.5804868E+05 -0.5315783E+04 -0.8114730E-02 -0.7255787E-03
  0.5500000E+01 -0.1465072E-02 -0.5623724E-03  0.5804868E+05 -0.5741147E+04 -0.8114730E-02 -0.1596310E-02
  0.5600000E+01 -0.1465072E-02 -0.7618679E-03  0.5804868E+05 -0.5582937E+04 -0.8114730E-02 -0.2314795E-02
  0.5700000E+01 -0.1465072E-02 -0.8804242E-03  0.5804868E+05 -0.4883537E+04 -0.8114730E-02 -0.2813963E-02
  0.5800000E+01 -0.1465072E-02 -0.9052355E-03  0.5804868E+05 -0.3731017E+04 -0.8114730E-02 -0.3042673E-02
  0.5900000E+01 -0.1465072E-02 -0.8307593E-03  0.5804868E+05 -0.2249082E+04 -0.8114730E-02 -0.2970008E-02
  0.6000000E+01 -0.1465072E-02 -0.6592287E-03  0.5804868E+05 -0.5842192E+03 -0.8114730E-02 -0.2588117E-02
  0.6100000E+01 -0.1465072E-02 -0.4005908E-03  0.5804868E+05  0.1108367E+04 -0.8114730E-02 -0.1913347E-02
  0.6200000E+01 -0.1465072E-02 -0.7186366E-04  0.5804868E+05  0.2679054E+04 -0.8114730E-02 -0.9855859E-03
  0.6300000E+01 -0.1465072E-02  0.3040296E-03  0.5804868E+05  0.3996669E+04 -0.8114730E-02  0.1342015E-03
  0.6400000E+01 -0.1465072E-02  0.6999121E-03  0.5804868E+05  0.4959226E+04 -0.8114730E-02  0.1368149E-02
  0.6500000E+01 -0.1465072E-02  0.1086302E-02  0.5804868E+05  0.5501282E+04 -0.8114730E-02  0.2626957E-02
  0.6600000E+01 -0.1465072E-02  0.1433589E-02  0.5804868E+05  0.5597644E+04 -0.8114730E-02  0.3816409E-02
  0.6700000E+01 -0.1465072E-02  0.1714232E-02  0.5804868E+05  0.5263323E+04 -0.8114730E-02  0.4844361E-02
  0.6800000E+01 -0.1465072E-02  0.1904826E-02  0.5804868E+05  0.4549811E+04 -0.8114730E-02  0.5627719E-02
  0.6900000E+01 -0.1465072E-02  0.1987900E-02  0.5804868E+05  0.3538273E+04 -0.8114730E-02  0.6098860E-02
  0.7000000E+01 -0.1465072E-02  0.1953281E-02  0.5804868E+05  0.2330526E+04 -0.8114730E-02  0.6211006E-02
  0.7100000E+01 -0.1465072E-02  0.1798956E-02  0.5804868E+05  0.1038759E+04 -0.8114730E-02  0.5942124E-02
  0.7200000E+01 -0.1465072E-02  0.1531309E-02  0.5804868E+05 -0.2251548E+03 -0.8114730E-02  0.5296973E-02
  0.7300000E+01 -0.1465072E-02  0.1164785E-02  0.5804868E+05 -0.1359419E+04 -0.8114730E-02  0.4307241E-02
  0.7400000E+01 -0.1465072E-02  0.7209311E-03  0.5804868E+05 -0.2280709E+04 -0.8114730E-02  0.3029612E-02
  0.7500000E+01 -0.1465072E-02  0.2269151E-03  0.5804868E+05 -0.2930137E+04 -0.8114730E-02  0.1541923E-02
  0.7600000E+01 -0.1465072E-02 -0.2863622E-03  0.5804868E+05 -0.3276652E+04 -0.8114730E-02 -0.6225718E-04
  0.7700000E+01 -0.1465072E-02 -0.7864551E-03  0.5804868E+05 -0.3317571E+04 -0.8114730E-02 -0.1680352E-02
  0.7800000E+01 -0.1465072E-02 -0.1241661E-02  0.5804868E+05 -0.3076580E+04 -0.8114730E-02 -0.3208113E-02
  0.7900000E+01 -0.1465072E-02 -0.1623290E-02  0.5804868E+05 -0.2599310E+04 -0.8114730E-02 -0.4547277E-02
  0.8000000E+01 -0.1465072E-02 -0.1907702E-02  0.5804868E+05 -0.1947443E+04 -0.8114730E-02 -0.5612698E-02
  0.8100000E+01 -0.1465072E-02 -0.2077969E-02  0.5804868E+05 -0.1191565E+04 -0.8114730E-02 -0.6338533E-02
  0.8200000E+01 -0.1465072E-02 -0.2125066E-02  0.5804868E+05 -0.4041104E+03 -0.8114730E-02 -0.6683014E-02
  0.8300000E+01 -0.1465072E-02 -0.2048468E-02  0.5804868E+05  0.3475017E+03 -0.8114730E-02 -0.6631396E-02
  0.8400001E+01 -0.1465072E-02 -0.1856137E-02  0.5804868E+05  0.1006379E+04 -0.8114730E-02 -0.6196851E-02
  0.8500000E+01 -0.1465072E-02 -0.1563869E-02  0.5804868E+05  0.1530329E+04 -0.8114730E-02 -0.5419254E-02
  0.8600000E+01 -0.1465072E-02 -0.1194086E-02  0.5804868E+05  0.1894004E+04 -0.8114730E-02 -0.4361972E-02
  0.8700000E+01 -0.1465072E-02 -0.7741466E-03  0.5804868E+05  0.2089265E+04 -0.8114730E-02 -0.3106874E-02
  0.8800000E+01 -0.1465072E-02 -0.3342830E-03  0.5804868E+05  0.2123747E+04 -0.8114730E-02 -0.1747925E-02
  0.8900001E+01 -0.1465072E-02  0.9461553E-04  0.5804868E+05  0.2018102E+04 -0.8114730E-02 -0.3840473E-03
  0.9000000E+01 -0.1465072E-02  0.4832772E-03  0.5804868E+05  0.1801908E+04 -0.8114730E-02  0.8884618E-03
  0.9100000E+01 -0.1465072E-02  0.8061808E-03  0.5804868E+05  0.1509605E+04 -0.8114730E-02  0.1983164E-02
  0.9200000E+01 -0.1465072E-02  0.1043353E-02  0.5804868E+05  0.1176023E+04 -0.8114730E-02  0.2829807E-02
  0.9300000E+01 -0.1465072E-02  0.1181759E-02  0.5804868E+05  0.8326121E+03 -0.8114730E-02  0.3379390E-02
  0.9400001E+01 -0.1465072E-02  0.1216133E-02  0.5804868E+05  0.5046199E+03 -0.8114730E-02  0.3607412E-02
  0.9500000E+01 -0.1465072E-02  0.1149217E-02  0.5804868E+05  0.2093018E+03 -0.8114730E-02  0.3515192E-02
  0.9600000E+01 -0.1465072E-02  0.9913887E-03  0.5804868E+05 -0.4452717E+02 -0.8114730E-02  0.3129133E-02
  0.9700000E+01 -0.1465072E-02  0.7597153E-03  0.5804868E+05 -0.2557505E+03 -0.8114730E-02  0.2497968E-02
  0.9800000E+01 -0.1465072E-02  0.4764970E-03  0.5804868E+05 -0.4292995E+03 -0.8114730E-02  0.1688327E-02
  0.9900001E+01 -0.1465072E-02  0.1674544E-03  0.5804868E+05 -0.5736813E+03 -0.8114730E-02  0.7789530E-03
  0.1000000E+02 -0.1465072E-02 -0.1403413E-03  0.5804868E+05 -0.6983893E+03 -0.8114730E-02 -0.1459798E-03
  0.1010000E+02 -0.1465072E-02 -0.4205991E-03  0.5804868E+05 -0.8111641E+03 -0.8114730E-02 -0.1003803E-02
  0.1020000E+02 -0.1465072E-02 -0.6498374E-03  0.5804868E+05 -0.9160206E+03 -0.8114730E-02 -0.1720043E-02
  0.1030000E+02 -0.1465072E-02 -0.8091852E-03  0.5804868E+05 -0.1011773E+04 -0.8114730E-02 -0.2234343E-02
  0.1040000E+02 -0.1465072E-02 -0.8857683E-03  0.5804868E+05 -0.1091746E+04 -0.8114730E-02 -0.2505040E-02
  0.1050000E+02 -0.1465072E-02 -0.8736218E-03  0.5804868E+05 -0.1144286E+04 -0.8114730E-02 -0.2512172E-02
  0.1060000E+02 -0.1465072E-02 -0.7740461E-03  0.5804868E+05 -0.1154491E+04 -0.8114730E-02 -0.2258615E-02
  0.1070000E+02 -0.1465072E-02 -0.5953895E-03  0.5804868E+05 -0.1106397E+04 -0.8114730E-02 -0.1769345E-02
  0.1080000E+02 -0.1465072E-02 -0.3522677E-03  0.5804868E+05 -0.9858807E+03 -0.8114730E-02 -0.1088819E-02
  0.1090000E+02 -0.1465072E-02 -0.6433811E-04  0.5804868E+05 -0.7833653E+03 -0.8114730E-02 -0.2769194E-03
  0.1100000E+02 -0.1465072E-02  0.2453315E-03  0.5804868E+05 -0.4964548E+03 -0.8114730E-02  0.5963779E-03
  0.1110000E+02 -0.1465072E-02  0.5521188E-03  0.5804868E+05 -0.1317550E+03 -0.8114730E-02  0.1457020E-02
  0.1120000E+02 -0.1465072E-02  0.8317802E-03  0.5804868E+05  0.2942815E+03 -0.8114730E-02  0.2233045E-02
  0.1130000E+02 -0.1465072E-02  0.1062344E-02  0.5804868E+05  0.7556564E+03 -0.8114730E-02  0.2860513E-02
  0.1140000E+02 -0.1465072E-02  0.1225759E-02  0.5804868E+05  0.1218304E+04 -0.8114730E-02  0.3288514E-02
  0.1150000E+02 -0.1465072E-02  0.1309220E-02  0.5804868E+05  0.1642755E+04 -0.8114730E-02  0.3483026E-02
  0.1160000E+02 -0.1465072E-02  0.1306067E-02  0.5804868E+05  0.1987770E+04 -0.8114730E-02  0.3429285E-02
  0.1170000E+02 -0.1465072E-02  0.1216152E-02  0.5804868E+05  0.2214357E+04 -0.8114730E-02  0.3132379E-02