VARIABLES="w (rad/s)"
"abs(F   1   1)" "angle(F   1   1)"
"abs(F   1   2)" "angle(F   1   2)"
"abs(F   1   3)" "angle(F   1   3)"
Zone t="Diffraction force - beta =   0.000 deg",I=    32,F=POINT
  0.1000000E+00  0.5265952E+03 -0.1570796E+01  0.1185893E+04 -0.3130471E+01  0.1855293E+04 -0.1570796E+01
  0.2000000E+00  0.2100466E+04 -0.1570788E+01  0.4860727E+04 -0.3099358E+01  0.7401707E+04 -0.1570788E+01
  0.3000000E+00  0.4676829E+04 -0.1570706E+01  0.1114165E+05 -0.3052535E+01  0.1649083E+05 -0.1570705E+01
  0.4000000E+00  0.8207536E+04 -0.1570308E+01  0.1999739E+05 -0.2994703E+01  0.2897239E+05 -0.1570300E+01
  0.5000000E+00  0.1259704E+05 -0.1569009E+01  0.3118007E+05 -0.2930151E+01  0.4452152E+05 -0.1568981E+01
  0.6000001E+00  0.1773772E+05 -0.1565728E+01  0.4424928E+05 -0.2862539E+01  0.6277517E+05 -0.1565651E+01
  0.7000000E+00  0.2360323E+05 -0.1558836E+01  0.5863246E+05 -0.2794763E+01  0.8369605E+05 -0.1558658E+01
  0.8000001E+00  0.2986004E+05 -0.1546093E+01  0.7374734E+05 -0.2729369E+01  0.1060748E+06 -0.1545734E+01
  0.9000000E+00  0.3639255E+05 -0.1525037E+01  0.8890945E+05 -0.2667354E+01  0.1295458E+06 -0.1524388E+01
  0.1000000E+01  0.4271845E+05 -0.1493257E+01  0.1036525E+06 -0.2610358E+01  0.1523896E+06 -0.1492182E+01
  0.1100000E+01  0.4837044E+05 -0.1449079E+01  0.1173930E+06 -0.2558037E+01  0.1729418E+06 -0.1447430E+01
  0.1200000E+01  0.5226842E+05 -0.1390996E+01  0.1298252E+06 -0.2511713E+01  0.1872342E+06 -0.1388528E+01
  0.1300000E+01  0.5379288E+05 -0.1320766E+01  0.1405838E+06 -0.2470656E+01  0.1930733E+06 -0.1317271E+01
  0.1400000E+01  0.5201274E+05 -0.1240581E+01  0.1493847E+06 -0.2434760E+01  0.1869708E+06 -0.1235711E+01
  0.1500000E+01  0.4637407E+05 -0.1154127E+01  0.1560204E+06 -0.2403817E+01  0.1668528E+06 -0.1147314E+01
  0.1600000E+01  0.3673793E+05 -0.1064551E+01  0.1603389E+06 -0.2377684E+01  0.1321240E+06 -0.1054582E+01
  0.1700000E+01  0.2350011E+05 -0.9709218E+00  0.1622300E+06 -0.2356293E+01  0.8413213E+05 -0.9539512E+00
  0.1800000E+01  0.7425637E+04 -0.8238835E+00  0.1616279E+06 -0.2339541E+01  0.2569513E+05 -0.7645782E+00
  0.1900000E+01  0.1067614E+05  0.2207373E+01  0.1585312E+06 -0.2327466E+01  0.4083837E+05  0.2180288E+01
  0.2000000E+01  0.2965105E+05  0.2312805E+01  0.1529698E+06 -0.2320253E+01  0.1104595E+06  0.2304321E+01
  0.2100000E+01  0.4867316E+05  0.2373404E+01  0.1450352E+06 -0.2318416E+01  0.1805473E+06  0.2370135E+01
  0.2200000E+01  0.6686822E+05  0.2420385E+01  0.1348953E+06 -0.2322706E+01  0.2478355E+06  0.2419824E+01
  0.2300000E+01  0.8345452E+05  0.2458129E+01  0.1227226E+06 -0.2335006E+01  0.3093856E+06  0.2459417E+01
  0.2400000E+01  0.9771526E+05  0.2488443E+01  0.1086880E+06 -0.2359910E+01  0.3624894E+06  0.2491211E+01
  0.2500000E+01  0.1090108E+06  0.2512606E+01  0.9246230E+05 -0.2417380E+01  0.4047307E+06  0.2516670E+01
  0.2600000E+01  0.1167887E+06  0.2530894E+01  0.8601588E+05 -0.2063015E+01  0.4340010E+06  0.2536191E+01
  0.2700000E+01  0.1206169E+06  0.2543489E+01  0.6466702E+05 -0.2409714E+01  0.4486051E+06  0.2550044E+01
  0.2800000E+01  0.1201955E+06  0.2550212E+01  0.4829918E+05 -0.2528112E+01  0.4473886E+06  0.2558109E+01
  0.2900000E+01  0.1154382E+06  0.2550152E+01  0.3355239E+05 -0.2709806E+01  0.4299855E+06  0.2559524E+01
  0.3000000E+01  0.1063024E+06  0.2538534E+01  0.2171162E+05 -0.3064677E+01  0.3962102E+06  0.2549658E+01
  0.3100000E+01  0.9222852E+05  0.2489589E+01  0.1606697E+05  0.2544985E+01  0.3442671E+06  0.2502880E+01
  0.3200000E+01  0.8177726E+05  0.2663361E+01  0.1857280E+05  0.1878437E+01  0.3023740E+06  0.2680099E+01
