VARIABLES="w (rad/s)"
"abs(F   1   1)" "angle(F   1   1)"
"abs(F   1   2)" "angle(F   1   2)"
"abs(F   1   3)" "angle(F   1   3)"
Zone t="Diffraction force - beta =   0.000 deg",I=   100,F=POINT
  0.1000000E+00  0.3651546E-01 -0.1570796E+01  0.6141751E-01 -0.3141161E+01  0.1095547E+00 -0.1570796E+01
  0.3010101E+00  0.3303593E+00 -0.1570796E+01  0.5591205E+00 -0.3137710E+01  0.9911542E+00 -0.1570796E+01
  0.5020202E+00  0.9190788E+00 -0.1570796E+01  0.1567037E+01 -0.3130940E+01  0.2757444E+01 -0.1570796E+01
  0.7030303E+00  0.1806415E+01 -0.1570795E+01  0.3102576E+01 -0.3121095E+01  0.5419650E+01 -0.1570795E+01
  0.9040404E+00  0.2985921E+01 -0.1570792E+01  0.5174204E+01 -0.3108399E+01  0.8958441E+01 -0.1570792E+01
  0.1105051E+01  0.4462241E+01 -0.1570781E+01  0.7789282E+01 -0.3093130E+01  0.1338769E+02 -0.1570781E+01
  0.1306061E+01  0.6211479E+01 -0.1570756E+01  0.1094966E+02 -0.3075571E+01  0.1863581E+02 -0.1570756E+01
  0.1507071E+01  0.8227006E+01 -0.1570701E+01  0.1465121E+02 -0.3056019E+01  0.2468280E+02 -0.1570701E+01
  0.1708081E+01  0.1057484E+02 -0.1570597E+01  0.1888373E+02 -0.3034762E+01  0.3172681E+02 -0.1570597E+01
  0.1909091E+01  0.1311131E+02 -0.1570412E+01  0.2362675E+02 -0.3012072E+01  0.3933679E+02 -0.1570412E+01
  0.2110101E+01  0.1600985E+02 -0.1570107E+01  0.2884680E+02 -0.2988168E+01  0.4803302E+02 -0.1570107E+01
  0.2311111E+01  0.1908187E+02 -0.1569624E+01  0.3452115E+02 -0.2963368E+01  0.5724969E+02 -0.1569624E+01
  0.2512121E+01  0.2244164E+02 -0.1568897E+01  0.4060908E+02 -0.2937887E+01  0.6732965E+02 -0.1568897E+01
  0.2713131E+01  0.2612374E+02 -0.1567846E+01  0.4704757E+02 -0.2911847E+01  0.7837644E+02 -0.1567846E+01
  0.2914141E+01  0.2990714E+02 -0.1566351E+01  0.5380971E+02 -0.2885571E+01  0.8972753E+02 -0.1566351E+01
  0.3115151E+01  0.3397869E+02 -0.1564311E+01  0.6083312E+02 -0.2859166E+01  0.1019429E+03 -0.1564311E+01
  0.3316161E+01  0.3840053E+02 -0.1561606E+01  0.6805730E+02 -0.2832765E+01  0.1152090E+03 -0.1561606E+01
  0.3517171E+01  0.4297429E+02 -0.1558059E+01  0.7542957E+02 -0.2806545E+01  0.1289310E+03 -0.1558059E+01
  0.3718182E+01  0.4759286E+02 -0.1553473E+01  0.8289247E+02 -0.2780589E+01  0.1427876E+03 -0.1553473E+01
  0.3919192E+01  0.5253397E+02 -0.1547748E+01  0.9042323E+02 -0.2755178E+01  0.1576116E+03 -0.1547748E+01
  0.4120202E+01  0.5777108E+02 -0.1540717E+01  0.9791161E+02 -0.2730086E+01  0.1733237E+03 -0.1540717E+01
  0.4321212E+01  0.6314583E+02 -0.1532149E+01  0.1053264E+03 -0.2705520E+01  0.1894486E+03 -0.1532149E+01
  0.4522222E+01  0.6848299E+02 -0.1521772E+01  0.1126529E+03 -0.2681749E+01  0.2054608E+03 -0.1521771E+01
  0.4723232E+01  0.7380553E+02 -0.1509424E+01  0.1198189E+03 -0.2658611E+01  0.2214288E+03 -0.1509423E+01
  0.4924242E+01  0.7935094E+02 -0.1495151E+01  0.1267808E+03 -0.2636107E+01  0.2380656E+03 -0.1495150E+01
  0.5125252E+01  0.8497697E+02 -0.1478777E+01  0.1335110E+03 -0.2614393E+01  0.2549442E+03 -0.1478776E+01
  0.5326262E+01  0.9050143E+02 -0.1460078E+01  0.1399516E+03 -0.2593369E+01  0.2715184E+03 -0.1460077E+01
  0.5527273E+01  0.9577237E+02 -0.1438844E+01  0.1460707E+03 -0.2573040E+01  0.2873314E+03 -0.1438843E+01
  0.5728283E+01  0.1006307E+03 -0.1414863E+01  0.1518644E+03 -0.2553557E+01  0.3019070E+03 -0.1414862E+01
  0.5929293E+01  0.1050445E+03 -0.1388255E+01  0.1573341E+03 -0.2535087E+01  0.3151477E+03 -0.1388253E+01
  0.6130303E+01  0.1090920E+03 -0.1359408E+01  0.1624176E+03 -0.2517313E+01  0.3272908E+03 -0.1359406E+01
  0.6331313E+01  0.1125889E+03 -0.1328277E+01  0.1670826E+03 -0.2500164E+01  0.3377813E+03 -0.1328275E+01
  0.6532323E+01  0.1153656E+03 -0.1294826E+01  0.1713215E+03 -0.2483741E+01  0.3461112E+03 -0.1294823E+01
  0.6733334E+01  0.1172485E+03 -0.1259073E+01  0.1751342E+03 -0.2468149E+01  0.3517589E+03 -0.1259070E+01
  0.6934343E+01  0.1181871E+03 -0.1221558E+01  0.1785097E+03 -0.2453361E+01  0.3545741E+03 -0.1221554E+01
  0.7135354E+01  0.1181249E+03 -0.1182597E+01  0.1814200E+03 -0.2439239E+01  0.3543870E+03 -0.1182592E+01
  0.7336363E+01  0.1169271E+03 -0.1142194E+01  0.1838570E+03 -0.2425715E+01  0.3507927E+03 -0.1142189E+01
  0.7537374E+01  0.1145656E+03 -0.1100636E+01  0.1858241E+03 -0.2412929E+01  0.3437073E+03 -0.1100630E+01
  0.7738384E+01  0.1110282E+03 -0.1058408E+01  0.1873244E+03 -0.2400890E+01  0.3330941E+03 -0.1058399E+01
  0.7939394E+01  0.1062966E+03 -0.1015565E+01  0.1883554E+03 -0.2389619E+01  0.3188978E+03 -0.1015555E+01
  0.8140405E+01  0.1004139E+03 -0.9721609E+00  0.1889067E+03 -0.2378989E+01  0.3012487E+03 -0.9721493E+00
  0.8341414E+01  0.9343710E+02 -0.9283214E+00  0.1889828E+03 -0.2368987E+01  0.2803172E+03 -0.9283081E+00
  0.8542424E+01  0.8544923E+02 -0.8839989E+00  0.1885871E+03 -0.2359592E+01  0.2563524E+03 -0.8839826E+00
  0.8743435E+01  0.7653513E+02 -0.8386345E+00  0.1877261E+03 -0.2350857E+01  0.2296086E+03 -0.8386139E+00
  0.8944445E+01  0.6680326E+02 -0.7913345E+00  0.1864143E+03 -0.2342859E+01  0.2004115E+03 -0.7913088E+00
  0.9145455E+01  0.5636551E+02 -0.7402571E+00  0.1846593E+03 -0.2335610E+01  0.1690971E+03 -0.7402235E+00
  0.9346465E+01  0.4534354E+02 -0.6814052E+00  0.1824638E+03 -0.2328996E+01  0.1360301E+03 -0.6813591E+00
  0.9547475E+01  0.3388929E+02 -0.6051350E+00  0.1798374E+03 -0.2322989E+01  0.1016663E+03 -0.6050676E+00
  0.9748485E+01  0.2220385E+02 -0.4807701E+00  0.1767986E+03 -0.2317650E+01  0.6660954E+02 -0.4806544E+00
  0.9949495E+01  0.1090323E+02 -0.1476883E+00  0.1733603E+03 -0.2313027E+01  0.3270932E+02 -0.1474172E+00
  0.1015051E+02  0.6768095E+01  0.1378778E+01  0.1695405E+03 -0.2309187E+01  0.2031395E+02  0.1378864E+01
  0.1035151E+02  0.1683805E+02  0.2111389E+01  0.1653515E+03 -0.2306188E+01  0.5052369E+02  0.2111292E+01
  0.1055252E+02  0.2885623E+02  0.2288057E+01  0.1608208E+03 -0.2303990E+01  0.8657835E+02  0.2287983E+01
  0.1075354E+02  0.4104437E+02  0.2372586E+01  0.1559575E+03 -0.2302664E+01  0.1231433E+03  0.2372527E+01
  0.1095455E+02  0.5312953E+02  0.2426899E+01  0.1507734E+03 -0.2302282E+01  0.1593993E+03  0.2426849E+01
  0.1115556E+02  0.6498830E+02  0.2467287E+01  0.1452950E+03 -0.2302952E+01  0.1949760E+03  0.2467244E+01
  0.1135657E+02  0.7652350E+02  0.2499959E+01  0.1395544E+03 -0.2304796E+01  0.2295821E+03  0.2499922E+01
  0.1155758E+02  0.8765791E+02  0.2527490E+01  0.1335348E+03 -0.2308135E+01  0.2629858E+03  0.2527456E+01
  0.1175859E+02  0.9831964E+02  0.2551406E+01  0.1272532E+03 -0.2313432E+01  0.2949710E+03  0.2551375E+01
  0.1195960E+02  0.1084439E+03  0.2572602E+01  0.1206844E+03 -0.2321241E+01  0.3253442E+03  0.2572573E+01
  0.1216061E+02  0.1179686E+03  0.2591701E+01  0.1137871E+03 -0.2332768E+01  0.3539182E+03  0.2591674E+01
  0.1236162E+02  0.1268305E+03  0.2609191E+01  0.1064696E+03 -0.2350504E+01  0.3805042E+03  0.2609166E+01
  0.1256263E+02  0.1349861E+03  0.2624964E+01  0.9800327E+02 -0.2383710E+01  0.4049711E+03  0.2624938E+01
  0.1276364E+02  0.1423756E+03  0.2639405E+01  0.8532629E+02 -0.2476635E+01  0.4271387E+03  0.2639381E+01
  0.1296465E+02  0.1489575E+03  0.2652810E+01  0.1178789E+03 -0.1074947E+01  0.4468845E+03  0.2652787E+01
  0.1316566E+02  0.1546908E+03  0.2665086E+01  0.9238641E+02 -0.2196239E+01  0.4640848E+03  0.2665064E+01
  0.1336667E+02  0.1595340E+03  0.2676336E+01  0.8169291E+02 -0.2275389E+01  0.4786138E+03  0.2676314E+01
  0.1356768E+02  0.1634397E+03  0.2686599E+01  0.7364234E+02 -0.2315011E+01  0.4903308E+03  0.2686577E+01
  0.1376869E+02  0.1664091E+03  0.2696044E+01  0.6646231E+02 -0.2346687E+01  0.4992379E+03  0.2696023E+01
  0.1396970E+02  0.1684156E+03  0.2704641E+01  0.5974855E+02 -0.2376965E+01  0.5052569E+03  0.2704620E+01
  0.1417071E+02  0.1694617E+03  0.2712830E+01  0.5325644E+02 -0.2411152E+01  0.5083954E+03  0.2712809E+01
  0.1437172E+02  0.1695169E+03  0.2719941E+01  0.4713548E+02 -0.2449345E+01  0.5085602E+03  0.2719919E+01
  0.1457273E+02  0.1685554E+03  0.2726019E+01  0.4128139E+02 -0.2495425E+01  0.5056759E+03  0.2725999E+01
  0.1477374E+02  0.1665860E+03  0.2731048E+01  0.3575056E+02 -0.2551940E+01  0.4997668E+03  0.2731028E+01
  0.1497475E+02  0.1637024E+03  0.2735277E+01  0.3056451E+02 -0.2623197E+01  0.4911144E+03  0.2735256E+01
  0.1517576E+02  0.1598346E+03  0.2737755E+01  0.2580669E+02 -0.2715162E+01  0.4795113E+03  0.2737734E+01
  0.1537677E+02  0.1549947E+03  0.2737437E+01  0.2154240E+02 -0.2836170E+01  0.4649897E+03  0.2737415E+01
  0.1557778E+02  0.1492002E+03  0.2731936E+01  0.1790491E+02 -0.2997894E+01  0.4476057E+03  0.2731914E+01
  0.1577879E+02  0.1423224E+03  0.2708992E+01  0.1505577E+02  0.3071327E+01  0.4269700E+03  0.2708969E+01
  0.1597980E+02  0.1277539E+03  0.2438697E+01  0.1319938E+02  0.2803335E+01  0.3832485E+03  0.2438672E+01
  0.1618081E+02  0.1271069E+03  0.2859433E+01  0.1245372E+02  0.2505804E+01  0.3813313E+03  0.2859409E+01
  0.1638182E+02  0.1182241E+03  0.2811547E+01  0.1270190E+02  0.2225240E+01  0.3546790E+03  0.2811522E+01
  0.1658283E+02  0.1089239E+03  0.2798074E+01  0.1365740E+02  0.1992369E+01  0.3267774E+03  0.2798048E+01
  0.1678384E+02  0.9910336E+02  0.2791091E+01  0.1494300E+02  0.1813592E+01  0.2973153E+03  0.2791064E+01
  0.1698485E+02  0.8879492E+02  0.2784681E+01  0.1629932E+02  0.1678119E+01  0.2663893E+03  0.2784651E+01
  0.1718586E+02  0.7810954E+02  0.2777455E+01  0.1760232E+02  0.1574021E+01  0.2343329E+03  0.2777423E+01
  0.1738687E+02  0.6714090E+02  0.2767811E+01  0.1868743E+02  0.1491620E+01  0.2014267E+03  0.2767775E+01
  0.1758788E+02  0.5609037E+02  0.2753895E+01  0.1956665E+02  0.1424528E+01  0.1682749E+03  0.2753855E+01
  0.1778889E+02  0.4499152E+02  0.2732342E+01  0.2017743E+02  0.1367580E+01  0.1349779E+03  0.2732294E+01
  0.1798990E+02  0.3398258E+02  0.2695703E+01  0.2052163E+02  0.1317116E+01  0.1019510E+03  0.2695646E+01
  0.1819091E+02  0.2322335E+02  0.2624472E+01  0.2054115E+02  0.1271153E+01  0.6967325E+02  0.2624396E+01
  0.1839192E+02  0.1303040E+02  0.2440274E+01  0.2025692E+02  0.1228030E+01  0.3909501E+02  0.2440164E+01
  0.1859293E+02  0.5468924E+01  0.1583331E+01  0.1964162E+02  0.1185850E+01  0.1641211E+02  0.1583327E+01
  0.1879394E+02  0.9747016E+01  0.2784379E+00  0.1849092E+02  0.1134254E+01  0.2924246E+02  0.2785994E+00
  0.1899495E+02  0.1826988E+02  0.3675185E-02  0.1506870E+02  0.1012312E+01  0.5480985E+02  0.3757017E-02
  0.1919596E+02  0.2665424E+02 -0.8833000E-01  0.2308010E+02  0.1188414E+01  0.7996251E+02 -0.8827877E-01
  0.1939697E+02  0.3443200E+02 -0.1329939E+00  0.1900980E+02  0.1097429E+01  0.1032956E+03 -0.1329582E+00
  0.1959798E+02  0.4142709E+02 -0.1591660E+00  0.1716191E+02  0.1046906E+01  0.1242809E+03 -0.1591395E+00
  0.1979899E+02  0.4755708E+02 -0.1757800E+00  0.1548444E+02  0.9971608E+00  0.1426709E+03 -0.1757591E+00
  0.2000000E+02  0.5275181E+02 -0.1872347E+00  0.1386525E+02  0.9429858E+00  0.1582551E+03 -0.1872182E+00
