VARIABLES="w (rad/s)"
"abs(F   1   1)" "angle(F   1   1)"
"abs(F   1   2)" "angle(F   1   2)"
"abs(F   1   3)" "angle(F   1   3)"
Zone t="Diffraction force - beta =   0.000 deg",I=   100,F=POINT
  0.1000000E+00  0.1086189E+00 -0.1570775E+01  0.7101431E+03 -0.3733697E-07  0.3258823E+00 -0.1570738E+01
  0.3010101E+00  0.9833652E+00 -0.1570796E+01  0.7090663E+03 -0.3061508E-05  0.2950330E+01 -0.1570792E+01
  0.5020202E+00  0.2733746E+01 -0.1570793E+01  0.7068934E+03 -0.2361439E-04  0.8201887E+01 -0.1570798E+01
  0.7030303E+00  0.5360281E+01 -0.1570793E+01  0.7036136E+03 -0.9037807E-04  0.1608210E+02 -0.1570795E+01
  0.9040404E+00  0.8851669E+01 -0.1570795E+01  0.6992254E+03 -0.2455855E-03  0.2655712E+02 -0.1570795E+01
  0.1105051E+01  0.1320614E+02 -0.1570791E+01  0.6937209E+03 -0.5439374E-03  0.3962146E+02 -0.1570791E+01
  0.1306061E+01  0.1839170E+02 -0.1570783E+01  0.6871108E+03 -0.1051343E-02  0.5517935E+02 -0.1570783E+01
  0.1507071E+01  0.2439204E+02 -0.1570764E+01  0.6794078E+03 -0.1843116E-02  0.7318174E+02 -0.1570764E+01
  0.1708081E+01  0.3126192E+02 -0.1570729E+01  0.6706398E+03 -0.3002403E-02  0.9379294E+02 -0.1570729E+01
  0.1909091E+01  0.3884474E+02 -0.1570666E+01  0.6608462E+03 -0.4617734E-02  0.1165430E+03 -0.1570666E+01
  0.2110101E+01  0.4729942E+02 -0.1570563E+01  0.6500829E+03 -0.6781444E-02  0.1419090E+03 -0.1570563E+01
  0.2311111E+01  0.5642124E+02 -0.1570400E+01  0.6384014E+03 -0.9586595E-02  0.1692764E+03 -0.1570400E+01
  0.2512121E+01  0.6630672E+02 -0.1570153E+01  0.6258704E+03 -0.1312643E-01  0.1989351E+03 -0.1570153E+01
  0.2713131E+01  0.7697122E+02 -0.1569795E+01  0.6125886E+03 -0.1749082E-01  0.2309304E+03 -0.1569795E+01
  0.2914141E+01  0.8817266E+02 -0.1569288E+01  0.5986163E+03 -0.2276520E-01  0.2645370E+03 -0.1569288E+01
  0.3115151E+01  0.1000753E+03 -0.1568594E+01  0.5840519E+03 -0.2903130E-01  0.3002472E+03 -0.1568594E+01
  0.3316161E+01  0.1127170E+03 -0.1567665E+01  0.5689926E+03 -0.3636255E-01  0.3381747E+03 -0.1567665E+01
  0.3517171E+01  0.1258737E+03 -0.1566448E+01  0.5535265E+03 -0.4482282E-01  0.3776471E+03 -0.1566448E+01
  0.3718182E+01  0.1394105E+03 -0.1564882E+01  0.5377458E+03 -0.5447407E-01  0.4182603E+03 -0.1564883E+01
  0.3919192E+01  0.1535752E+03 -0.1562912E+01  0.5217024E+03 -0.6536691E-01  0.4607575E+03 -0.1562913E+01
  0.4120202E+01  0.1683105E+03 -0.1560473E+01  0.5055410E+03 -0.7754664E-01  0.5049653E+03 -0.1560473E+01
  0.4321212E+01  0.1834234E+03 -0.1557494E+01  0.4893181E+03 -0.9104425E-01  0.5503068E+03 -0.1557494E+01
  0.4522222E+01  0.1987029E+03 -0.1553906E+01  0.4730627E+03 -0.1058840E+00  0.5961465E+03 -0.1553906E+01
  0.4723232E+01  0.2141320E+03 -0.1549654E+01  0.4568755E+03 -0.1221012E+00  0.6424360E+03 -0.1549654E+01
  0.4924242E+01  0.2299066E+03 -0.1544710E+01  0.4408174E+03 -0.1397213E+00  0.6897618E+03 -0.1544709E+01
  0.5125252E+01  0.2458386E+03 -0.1539028E+01  0.4249242E+03 -0.1587445E+00  0.7375604E+03 -0.1539028E+01
  0.5326262E+01  0.2616966E+03 -0.1532576E+01  0.4092664E+03 -0.1791757E+00  0.7851354E+03 -0.1532576E+01
  0.5527273E+01  0.2772738E+03 -0.1525335E+01  0.3938860E+03 -0.2010189E+00  0.8318690E+03 -0.1525335E+01
  0.5728283E+01  0.2923529E+03 -0.1517314E+01  0.3787831E+03 -0.2242810E+00  0.8771088E+03 -0.1517314E+01
  0.5929293E+01  0.3068419E+03 -0.1508611E+01  0.3639468E+03 -0.2489751E+00  0.9205755E+03 -0.1508611E+01
  0.6130303E+01  0.3207606E+03 -0.1499376E+01  0.3494635E+03 -0.2751172E+00  0.9623344E+03 -0.1499376E+01
  0.6331313E+01  0.3338614E+03 -0.1489721E+01  0.3353683E+03 -0.3026985E+00  0.1001637E+04 -0.1489721E+01
  0.6532323E+01  0.3459123E+03 -0.1479795E+01  0.3216584E+03 -0.3317026E+00  0.1037789E+04 -0.1479795E+01
  0.6733334E+01  0.3566802E+03 -0.1469806E+01  0.3083198E+03 -0.3621316E+00  0.1070094E+04 -0.1469806E+01
  0.6934343E+01  0.3660724E+03 -0.1460096E+01  0.2953604E+03 -0.3940000E+00  0.1098269E+04 -0.1460096E+01
  0.7135354E+01  0.3739962E+03 -0.1450955E+01  0.2828164E+03 -0.4272877E+00  0.1122043E+04 -0.1450955E+01
  0.7336363E+01  0.3802876E+03 -0.1442661E+01  0.2706989E+03 -0.4620020E+00  0.1140915E+04 -0.1442661E+01
  0.7537374E+01  0.3849058E+03 -0.1435542E+01  0.2589796E+03 -0.4981259E+00  0.1154767E+04 -0.1435542E+01
  0.7738384E+01  0.3878518E+03 -0.1429987E+01  0.2476509E+03 -0.5356815E+00  0.1163607E+04 -0.1429987E+01
  0.7939394E+01  0.3891254E+03 -0.1426296E+01  0.2367051E+03 -0.5746658E+00  0.1167424E+04 -0.1426296E+01
  0.8140405E+01  0.3887962E+03 -0.1424739E+01  0.2261617E+03 -0.6150652E+00  0.1166434E+04 -0.1424739E+01
  0.8341414E+01  0.3869684E+03 -0.1425609E+01  0.2160152E+03 -0.6568867E+00  0.1160951E+04 -0.1425609E+01
  0.8542424E+01  0.3837786E+03 -0.1429147E+01  0.2062618E+03 -0.7001261E+00  0.1151378E+04 -0.1429147E+01
  0.8743435E+01  0.3793570E+03 -0.1435519E+01  0.1968829E+03 -0.7447786E+00  0.1138115E+04 -0.1435519E+01
  0.8944445E+01  0.3738654E+03 -0.1444868E+01  0.1878550E+03 -0.7908885E+00  0.1121636E+04 -0.1444868E+01
  0.9145455E+01  0.3674576E+03 -0.1457303E+01  0.1791685E+03 -0.8384727E+00  0.1102409E+04 -0.1457303E+01
  0.9346465E+01  0.3602872E+03 -0.1472890E+01  0.1708358E+03 -0.8875003E+00  0.1080897E+04 -0.1472890E+01
  0.9547475E+01  0.3525133E+03 -0.1491649E+01  0.1628525E+03 -0.9379525E+00  0.1057572E+04 -0.1491649E+01
  0.9748485E+01  0.3442695E+03 -0.1513581E+01  0.1551997E+03 -0.9898720E+00  0.1032842E+04 -0.1513581E+01
  0.9949495E+01  0.3356750E+03 -0.1538663E+01  0.1478609E+03 -0.1043272E+01  0.1007054E+04 -0.1538663E+01
  0.1015051E+02  0.3268463E+03 -0.1566844E+01  0.1408189E+03 -0.1098208E+01  0.9805657E+03 -0.1566844E+01
  0.1035151E+02  0.3178705E+03 -0.1598061E+01  0.1340584E+03 -0.1154694E+01  0.9536366E+03 -0.1598061E+01
  0.1055252E+02  0.3088255E+03 -0.1632254E+01  0.1275849E+03 -0.1212806E+01  0.9265010E+03 -0.1632254E+01
  0.1075354E+02  0.2997877E+03 -0.1669340E+01  0.1213807E+03 -0.1272521E+01  0.8993847E+03 -0.1669340E+01
  0.1095455E+02  0.2908073E+03 -0.1709227E+01  0.1154283E+03 -0.1333843E+01  0.8724431E+03 -0.1709227E+01
  0.1115556E+02  0.2819273E+03 -0.1751848E+01  0.1097157E+03 -0.1396899E+01  0.8458035E+03 -0.1751847E+01
  0.1135657E+02  0.2731982E+03 -0.1797119E+01  0.1042370E+03 -0.1461882E+01  0.8196119E+03 -0.1797119E+01
  0.1155758E+02  0.2646309E+03 -0.1844941E+01  0.9893772E+02 -0.1528811E+01  0.7939097E+03 -0.1844941E+01
  0.1175859E+02  0.2562491E+03 -0.1895240E+01  0.9378111E+02 -0.1598160E+01  0.7687628E+03 -0.1895240E+01
  0.1195960E+02  0.2480689E+03 -0.1947951E+01  0.8870526E+02 -0.1670259E+01  0.7442205E+03 -0.1947951E+01
  0.1216061E+02  0.2401092E+03 -0.2003011E+01  0.8360461E+02 -0.1746167E+01  0.7203409E+03 -0.2003011E+01
  0.1236162E+02  0.2323952E+03 -0.2060332E+01  0.7829447E+02 -0.1828322E+01  0.6971981E+03 -0.2060332E+01
  0.1256263E+02  0.2248840E+03 -0.2119883E+01  0.7179540E+02 -0.1923896E+01  0.6746620E+03 -0.2119884E+01
  0.1276364E+02  0.2176003E+03 -0.2181584E+01  0.6004085E+02 -0.2072263E+01  0.6528115E+03 -0.2181583E+01
  0.1296465E+02  0.2105661E+03 -0.2245389E+01  0.1352224E+03 -0.8737677E+00  0.6317079E+03 -0.2245389E+01
  0.1316566E+02  0.2037509E+03 -0.2311274E+01  0.8084109E+02 -0.1956630E+01  0.6112612E+03 -0.2311275E+01
  0.1336667E+02  0.1971523E+03 -0.2379191E+01  0.7179813E+02 -0.2092699E+01  0.5914640E+03 -0.2379193E+01
  0.1356768E+02  0.1907557E+03 -0.2449063E+01  0.6663171E+02 -0.2192276E+01  0.5722746E+03 -0.2449063E+01
  0.1376869E+02  0.1845862E+03 -0.2520964E+01  0.6268795E+02 -0.2283228E+01  0.5537646E+03 -0.2520964E+01
  0.1396970E+02  0.1786287E+03 -0.2594888E+01  0.5934709E+02 -0.2370455E+01  0.5358917E+03 -0.2594887E+01
  0.1417071E+02  0.1729485E+03 -0.2670658E+01  0.5626020E+02 -0.2458009E+01  0.5188514E+03 -0.2670657E+01
  0.1437172E+02  0.1674382E+03 -0.2748533E+01  0.5350562E+02 -0.2544453E+01  0.5023192E+03 -0.2748532E+01
  0.1457273E+02  0.1620912E+03 -0.2828450E+01  0.5092242E+02 -0.2631646E+01  0.4862786E+03 -0.2828451E+01
  0.1477374E+02  0.1569143E+03 -0.2910508E+01  0.4850675E+02 -0.2719316E+01  0.4707472E+03 -0.2910507E+01
  0.1497475E+02  0.1520092E+03 -0.2994792E+01  0.4621762E+02 -0.2807752E+01  0.4560304E+03 -0.2994791E+01
  0.1517576E+02  0.1472405E+03 -0.3081812E+01  0.4406244E+02 -0.2896905E+01  0.4417244E+03 -0.3081811E+01
  0.1537677E+02  0.1425762E+03  0.3110560E+01  0.4200868E+02 -0.2986776E+01  0.4277296E+03  0.3110561E+01
  0.1557778E+02  0.1379856E+03  0.3013492E+01  0.4005799E+02 -0.3077540E+01  0.4139576E+03  0.3013492E+01
  0.1577879E+02  0.1331525E+03  0.2897687E+01  0.3819231E+02  0.3113912E+01  0.3994557E+03  0.2897687E+01
  0.1597980E+02  0.1193232E+03  0.2526778E+01  0.3640937E+02  0.3020998E+01  0.3579501E+03  0.2526778E+01
  0.1618081E+02  0.1269336E+03  0.2864182E+01  0.3470005E+02  0.2926828E+01  0.3808087E+03  0.2864182E+01
  0.1638182E+02  0.1225548E+03  0.2720389E+01  0.3305656E+02  0.2831804E+01  0.3676685E+03  0.2720389E+01
  0.1658283E+02  0.1188763E+03  0.2611472E+01  0.3148494E+02  0.2734657E+01  0.3566319E+03  0.2611471E+01
  0.1678384E+02  0.1153981E+03  0.2509142E+01  0.2996860E+02  0.2636376E+01  0.3461969E+03  0.2509142E+01
  0.1698485E+02  0.1120375E+03  0.2407741E+01  0.2850094E+02  0.2536793E+01  0.3361146E+03  0.2407741E+01
  0.1718586E+02  0.1087796E+03  0.2306314E+01  0.2710557E+02  0.2434803E+01  0.3263410E+03  0.2306314E+01
  0.1738687E+02  0.1056135E+03  0.2204121E+01  0.2573244E+02  0.2332088E+01  0.3168430E+03  0.2204119E+01
  0.1758788E+02  0.1026089E+03  0.2101420E+01  0.2442740E+02  0.2226762E+01  0.3078290E+03  0.2101419E+01
  0.1778889E+02  0.9968983E+02  0.1997690E+01  0.2315932E+02  0.2119279E+01  0.2990710E+03  0.1997689E+01
  0.1798990E+02  0.9686562E+02  0.1892856E+01  0.2193324E+02  0.2008575E+01  0.2905983E+03  0.1892856E+01
  0.1819091E+02  0.9412184E+02  0.1786951E+01  0.2071192E+02  0.1896067E+01  0.2823664E+03  0.1786951E+01
  0.1839192E+02  0.9145106E+02  0.1679870E+01  0.1950735E+02  0.1780857E+01  0.2743549E+03  0.1679869E+01
  0.1859293E+02  0.8885833E+02  0.1571568E+01  0.1828163E+02  0.1662850E+01  0.2665764E+03  0.1571568E+01
  0.1879394E+02  0.8633239E+02  0.1462029E+01  0.1676652E+02  0.1536792E+01  0.2589981E+03  0.1462029E+01
  0.1899495E+02  0.8387645E+02  0.1351218E+01  0.1302318E+02  0.1376905E+01  0.2516302E+03  0.1351218E+01
  0.1919596E+02  0.8148979E+02  0.1238926E+01  0.2195581E+02  0.1348016E+01  0.2444705E+03  0.1238927E+01
  0.1939697E+02  0.7916898E+02  0.1125110E+01  0.1814008E+02  0.1201859E+01  0.2375071E+03  0.1125110E+01
  0.1959798E+02  0.7690110E+02  0.1009957E+01  0.1687697E+02  0.1076912E+01  0.2307040E+03  0.1009958E+01
  0.1979899E+02  0.7471096E+02  0.8934352E+00  0.1595708E+02  0.9528242E+00  0.2241333E+03  0.8934356E+00
  0.2000000E+02  0.7258534E+02  0.7755241E+00  0.1522232E+02  0.8288652E+00  0.2177565E+03  0.7755250E+00
