VARIABLES="Period (s)" "|Fx| (N/m)" "|Fy| (N/m)" "|Fz| (N/m)" "|Cx| (N)" "|Cy| (N)" "|Cz| (N)" "ang(Fx) (°)" "ang(Fy) (°)" "ang(Fz) (°)" "ang(Cx) (°)" "ang(Cy) (°)" "ang(Cz) (°)"
Zone t="Corps  1"
Zone t="Diffraction force - beta =   0.000 deg",I=   100,F=POINT
 0.1000  0.108619E+00  0.710143E+03  0.325882E+00 -0.124309E-02 -0.900000E+02 -0.336728E-02
 0.3010  0.983365E+00  0.709066E+03  0.295033E+01 -0.204906E-04 -0.899998E+02 -0.245887E-03
 0.5020  0.273375E+01  0.706893E+03  0.820189E+01 -0.177585E-03 -0.899986E+02  0.956226E-04
 0.7030  0.536028E+01  0.703614E+03  0.160821E+02 -0.191245E-03 -0.899948E+02 -0.751321E-04
 0.9040  0.885167E+01  0.699225E+03  0.265571E+02 -0.956226E-04 -0.899859E+02 -0.956226E-04
 1.1051  0.132061E+02  0.693721E+03  0.396215E+02 -0.314189E-03 -0.899688E+02 -0.314189E-03
 1.3061  0.183917E+02  0.687111E+03  0.551794E+02 -0.792302E-03 -0.899398E+02 -0.792302E-03
 1.5071  0.243920E+02  0.679408E+03  0.731817E+02 -0.185781E-02 -0.898944E+02 -0.185781E-02
 1.7081  0.312619E+02  0.670640E+03  0.937929E+02 -0.387955E-02 -0.898280E+02 -0.383857E-02
 1.9091  0.388447E+02  0.660846E+03  0.116543E+03 -0.744491E-02 -0.897354E+02 -0.744491E-02
 2.1101  0.472994E+02  0.650083E+03  0.141909E+03 -0.133803E-01 -0.896115E+02 -0.133803E-01
 2.3111  0.564212E+02  0.638401E+03  0.169276E+03 -0.227309E-01 -0.894507E+02 -0.227309E-01
 2.5121  0.663067E+02  0.625870E+03  0.198935E+03 -0.368489E-01 -0.892479E+02 -0.368489E-01
 2.7131  0.769712E+02  0.612589E+03  0.230930E+03 -0.573872E-01 -0.889978E+02 -0.573872E-01
 2.9141  0.881727E+02  0.598616E+03  0.264537E+03 -0.864019E-01 -0.886957E+02 -0.864019E-01
 3.1152  0.100075E+03  0.584052E+03  0.300247E+03 -0.126174E+00 -0.883366E+02 -0.126174E+00
 3.3162  0.112717E+03  0.568993E+03  0.338175E+03 -0.179402E+00 -0.879166E+02 -0.179402E+00
 3.5172  0.125874E+03  0.553526E+03  0.377647E+03 -0.249165E+00 -0.874318E+02 -0.249165E+00
 3.7182  0.139411E+03  0.537746E+03  0.418260E+03 -0.338846E+00 -0.868789E+02 -0.338839E+00
 3.9192  0.153575E+03  0.521702E+03  0.460757E+03 -0.451715E+00 -0.862548E+02 -0.451708E+00
 4.1202  0.168311E+03  0.505541E+03  0.504965E+03 -0.591481E+00 -0.855569E+02 -0.591481E+00
 4.3212  0.183423E+03  0.489318E+03  0.550307E+03 -0.762160E+00 -0.847835E+02 -0.762153E+00
 4.5222  0.198703E+03  0.473063E+03  0.596146E+03 -0.967756E+00 -0.839333E+02 -0.967769E+00
 4.7232  0.214132E+03  0.456875E+03  0.642436E+03 -0.121134E+01 -0.830041E+02 -0.121135E+01
 4.9242  0.229907E+03  0.440817E+03  0.689762E+03 -0.149466E+01 -0.819946E+02 -0.149468E+01
 5.1253  0.245839E+03  0.424924E+03  0.737560E+03 -0.182018E+01 -0.809046E+02 -0.182019E+01
 5.3263  0.261697E+03  0.409266E+03  0.785135E+03 -0.218988E+01 -0.797340E+02 -0.218989E+01
 5.5273  0.277274E+03  0.393886E+03  0.831869E+03 -0.260473E+01 -0.784825E+02 -0.260473E+01
 5.7283  0.292353E+03  0.378783E+03  0.877109E+03 -0.306431E+01 -0.771496E+02 -0.306430E+01
 5.9293  0.306842E+03  0.363947E+03  0.920576E+03 -0.356295E+01 -0.757348E+02 -0.356295E+01
 6.1303  0.320761E+03  0.349464E+03  0.962334E+03 -0.409211E+01 -0.742369E+02 -0.409211E+01
 6.3313  0.333861E+03  0.335368E+03  0.100164E+04 -0.464526E+01 -0.726567E+02 -0.464525E+01
 6.5323  0.345912E+03  0.321658E+03  0.103779E+04 -0.521398E+01 -0.709948E+02 -0.521399E+01
 6.7333  0.356680E+03  0.308320E+03  0.107009E+04 -0.578633E+01 -0.692514E+02 -0.578632E+01
 6.9343  0.366072E+03  0.295360E+03  0.109827E+04 -0.634266E+01 -0.674255E+02 -0.634266E+01
 7.1354  0.373996E+03  0.282816E+03  0.112204E+04 -0.686640E+01 -0.655182E+02 -0.686640E+01
 7.3364  0.380288E+03  0.270699E+03  0.114091E+04 -0.734161E+01 -0.635292E+02 -0.734159E+01
 7.5374  0.384906E+03  0.258980E+03  0.115477E+04 -0.774951E+01 -0.614595E+02 -0.774951E+01
 7.7384  0.387852E+03  0.247651E+03  0.116361E+04 -0.806777E+01 -0.593077E+02 -0.806777E+01
 7.9394  0.389125E+03  0.236705E+03  0.116742E+04 -0.827926E+01 -0.570741E+02 -0.827926E+01
 8.1404  0.388796E+03  0.226162E+03  0.116643E+04 -0.836848E+01 -0.547594E+02 -0.836848E+01
 8.3414  0.386968E+03  0.216015E+03  0.116095E+04 -0.831860E+01 -0.523632E+02 -0.831860E+01
 8.5424  0.383779E+03  0.206262E+03  0.115138E+04 -0.811591E+01 -0.498857E+02 -0.811592E+01
 8.7434  0.379357E+03  0.196883E+03  0.113812E+04 -0.775085E+01 -0.473273E+02 -0.775084E+01
 8.9444  0.373865E+03  0.187855E+03  0.112164E+04 -0.721517E+01 -0.446854E+02 -0.721515E+01
 9.1455  0.367458E+03  0.179169E+03  0.110241E+04 -0.650269E+01 -0.419591E+02 -0.650270E+01
 9.3465  0.360287E+03  0.170836E+03  0.108090E+04 -0.560959E+01 -0.391500E+02 -0.560960E+01
 9.5475  0.352513E+03  0.162852E+03  0.105757E+04 -0.453484E+01 -0.362593E+02 -0.453484E+01
 9.7485  0.344270E+03  0.155200E+03  0.103284E+04 -0.327822E+01 -0.332845E+02 -0.327822E+01
 9.9495  0.335675E+03  0.147861E+03  0.100705E+04 -0.184113E+01 -0.302249E+02 -0.184113E+01
10.1505  0.326846E+03  0.140819E+03  0.980566E+03 -0.226441E+00 -0.270773E+02 -0.226441E+00
10.3515  0.317871E+03  0.134058E+03  0.953637E+03  0.156214E+01 -0.238409E+02  0.156214E+01
10.5525  0.308826E+03  0.127585E+03  0.926501E+03  0.352126E+01 -0.205113E+02  0.352126E+01
10.7535  0.299788E+03  0.121381E+03  0.899385E+03  0.564615E+01 -0.170899E+02  0.564616E+01
10.9545  0.290807E+03  0.115428E+03  0.872443E+03  0.793152E+01 -0.135764E+02  0.793151E+01
11.1556  0.281927E+03  0.109716E+03  0.845804E+03  0.103735E+02 -0.996356E+01  0.103734E+02
11.3566  0.273198E+03  0.104237E+03  0.819612E+03  0.129673E+02 -0.624036E+01  0.129673E+02
11.5576  0.264631E+03  0.989377E+02  0.793910E+03  0.157073E+02 -0.240557E+01  0.157074E+02
11.7586  0.256249E+03  0.937811E+02  0.768763E+03  0.185893E+02  0.156782E+01  0.185893E+02
11.9596  0.248069E+03  0.887053E+02  0.744221E+03  0.216094E+02  0.569879E+01  0.216094E+02
12.1606  0.240109E+03  0.836046E+02  0.720341E+03  0.247641E+02  0.100480E+02  0.247641E+02
12.3616  0.232395E+03  0.782945E+02  0.697198E+03  0.280483E+02  0.147551E+02  0.280483E+02
12.5626  0.224884E+03  0.717954E+02  0.674662E+03  0.314604E+02  0.202311E+02  0.314604E+02
12.7636  0.217600E+03  0.600408E+02  0.652812E+03  0.349956E+02  0.287319E+02  0.349955E+02
12.9647  0.210566E+03  0.135222E+03  0.631708E+03  0.386513E+02 -0.399368E+02  0.386513E+02
13.1657  0.203751E+03  0.808411E+02  0.611261E+03  0.424262E+02  0.221067E+02  0.424263E+02
13.3667  0.197152E+03  0.717981E+02  0.591464E+03  0.463176E+02  0.299028E+02  0.463177E+02
13.5677  0.190756E+03  0.666317E+02  0.572275E+03  0.503209E+02  0.356081E+02  0.503209E+02
13.7687  0.184586E+03  0.626880E+02  0.553765E+03  0.544406E+02  0.408193E+02  0.544406E+02
13.9697  0.178629E+03  0.593471E+02  0.535892E+03  0.586761E+02  0.458171E+02  0.586761E+02
14.1707  0.172949E+03  0.562602E+02  0.518851E+03  0.630174E+02  0.508335E+02  0.630174E+02
14.3717  0.167438E+03  0.535056E+02  0.502319E+03  0.674793E+02  0.557864E+02  0.674793E+02
14.5727  0.162091E+03  0.509224E+02  0.486279E+03  0.720583E+02  0.607822E+02  0.720583E+02
14.7737  0.156914E+03  0.485067E+02  0.470747E+03  0.767598E+02  0.658054E+02  0.767597E+02
14.9747  0.152009E+03  0.462176E+02  0.456030E+03  0.815889E+02  0.708723E+02  0.815889E+02
15.1758  0.147240E+03  0.440624E+02  0.441724E+03  0.865748E+02  0.759804E+02  0.865748E+02
15.3768  0.142576E+03  0.420087E+02  0.427730E+03 -0.268222E+03  0.811296E+02 -0.268222E+03
15.5778  0.137986E+03  0.400580E+02  0.413958E+03 -0.262660E+03  0.863301E+02 -0.262660E+03
15.7788  0.133152E+03  0.381923E+02  0.399456E+03 -0.256025E+03 -0.268414E+03 -0.256025E+03
15.9798  0.119323E+03  0.364094E+02  0.357950E+03 -0.234774E+03 -0.263090E+03 -0.234774E+03
16.1808  0.126934E+03  0.347000E+02  0.380809E+03 -0.254106E+03 -0.257695E+03 -0.254106E+03
16.3818  0.122555E+03  0.330566E+02  0.367668E+03 -0.245867E+03 -0.252250E+03 -0.245867E+03
16.5828  0.118876E+03  0.314849E+02  0.356632E+03 -0.239626E+03 -0.246684E+03 -0.239626E+03
16.7838  0.115398E+03  0.299686E+02  0.346197E+03 -0.233763E+03 -0.241053E+03 -0.233763E+03
16.9848  0.112037E+03  0.285009E+02  0.336115E+03 -0.227953E+03 -0.235348E+03 -0.227953E+03
17.1859  0.108780E+03  0.271056E+02  0.326341E+03 -0.222142E+03 -0.229504E+03 -0.222142E+03
17.3869  0.105614E+03  0.257324E+02  0.316843E+03 -0.216287E+03 -0.223619E+03 -0.216287E+03
17.5879  0.102609E+03  0.244274E+02  0.307829E+03 -0.210402E+03 -0.217584E+03 -0.210402E+03
17.7889  0.996898E+02  0.231593E+02  0.299071E+03 -0.204459E+03 -0.211426E+03 -0.204459E+03
17.9899  0.968656E+02  0.219332E+02  0.290598E+03 -0.198453E+03 -0.205083E+03 -0.198453E+03
18.1909  0.941218E+02  0.207119E+02  0.282366E+03 -0.192385E+03 -0.198637E+03 -0.192385E+03
18.3919  0.914511E+02  0.195074E+02  0.274355E+03 -0.186249E+03 -0.192036E+03 -0.186249E+03
18.5929  0.888583E+02  0.182816E+02  0.266576E+03 -0.180044E+03 -0.185274E+03 -0.180044E+03
18.7939  0.863324E+02  0.167665E+02  0.258998E+03 -0.173768E+03 -0.178052E+03 -0.173768E+03
18.9949  0.838764E+02  0.130232E+02  0.251630E+03 -0.167419E+03 -0.168891E+03 -0.167419E+03
19.1960  0.814898E+02  0.219558E+02  0.244471E+03 -0.160985E+03 -0.167236E+03 -0.160985E+03
19.3970  0.791690E+02  0.181401E+02  0.237507E+03 -0.154464E+03 -0.158861E+03 -0.154464E+03
19.5980  0.769011E+02  0.168770E+02  0.230704E+03 -0.147866E+03 -0.151703E+03 -0.147866E+03
19.7990  0.747110E+02  0.159571E+02  0.224133E+03 -0.141190E+03 -0.144593E+03 -0.141190E+03
20.0000  0.725853E+02  0.152223E+02  0.217756E+03 -0.134434E+03 -0.137490E+03 -0.134434E+03
