VARIABLES="w (rad/s)"
"abs(F   1   1)" "angle(F   1   1)"
"abs(F   1   2)" "angle(F   1   2)"
"abs(F   1   3)" "angle(F   1   3)"
Zone t="FKforce - beta =   0.000",I=   100,F=POINT
  0.1000000E+00  0.7210340E-01 -0.1570764E+01  0.7102045E+03 -0.1905547E-11  0.2163276E+00 -0.1570708E+01
  0.3010101E+00  0.6530059E+00 -0.1570796E+01  0.7096255E+03  0.2460777E-12  0.1959176E+01 -0.1570790E+01
  0.5020202E+00  0.1814667E+01 -0.1570792E+01  0.7084603E+03 -0.8955526E-11  0.5444443E+01 -0.1570799E+01
  0.7030303E+00  0.3553866E+01 -0.1570792E+01  0.7067155E+03  0.5271273E-11  0.1066245E+02 -0.1570795E+01
  0.9040404E+00  0.5865749E+01 -0.1570796E+01  0.7043967E+03 -0.4297008E-11  0.1759868E+02 -0.1570796E+01
  0.1105051E+01  0.8743895E+01 -0.1570796E+01  0.7015009E+03 -0.1287786E-09  0.2623377E+02 -0.1570796E+01
  0.1306061E+01  0.1218022E+02 -0.1570796E+01  0.6980362E+03  0.6470888E-10  0.3654354E+02 -0.1570796E+01
  0.1507071E+01  0.1616503E+02 -0.1570796E+01  0.6940043E+03  0.6709775E-11  0.4849894E+02 -0.1570796E+01
  0.1708081E+01  0.2068708E+02 -0.1570796E+01  0.6894128E+03  0.2431606E-10  0.6206613E+02 -0.1570797E+01
  0.1909091E+01  0.2573343E+02 -0.1570796E+01  0.6842680E+03 -0.4192032E-09  0.7720624E+02 -0.1570796E+01
  0.2110101E+01  0.3128957E+02 -0.1570796E+01  0.6785759E+03  0.3486064E-09  0.9387599E+02 -0.1570796E+01
  0.2311111E+01  0.3733938E+02 -0.1570796E+01  0.6723464E+03  0.6094804E-10  0.1120267E+03 -0.1570796E+01
  0.2512121E+01  0.4386510E+02 -0.1570796E+01  0.6655859E+03  0.4673503E-09  0.1316055E+03 -0.1570796E+01
  0.2713131E+01  0.5084756E+02 -0.1570796E+01  0.6583062E+03 -0.6932155E-09  0.1525542E+03 -0.1570796E+01
  0.2914141E+01  0.5826572E+02 -0.1570796E+01  0.6505170E+03 -0.3865496E-09  0.1748101E+03 -0.1570796E+01
  0.3115151E+01  0.6609707E+02 -0.1570796E+01  0.6422289E+03  0.1160113E-09  0.1983057E+03 -0.1570796E+01
  0.3316161E+01  0.7431757E+02 -0.1570796E+01  0.6334540E+03 -0.2822840E-09  0.2229689E+03 -0.1570796E+01
  0.3517171E+01  0.8290167E+02 -0.1570796E+01  0.6242058E+03 -0.2148497E-09  0.2487230E+03 -0.1570796E+01
  0.3718182E+01  0.9182238E+02 -0.1570796E+01  0.6144976E+03  0.7032309E-09  0.2754868E+03 -0.1570796E+01
  0.3919192E+01  0.1010504E+03 -0.1570796E+01  0.6043442E+03 -0.1713644E-08  0.3031734E+03 -0.1570796E+01
  0.4120202E+01  0.1105566E+03 -0.1570796E+01  0.5937596E+03  0.5709405E-09  0.3316931E+03 -0.1570796E+01
  0.4321212E+01  0.1203085E+03 -0.1570796E+01  0.5827612E+03 -0.9205173E-09  0.3609510E+03 -0.1570796E+01
  0.4522222E+01  0.1302738E+03 -0.1570796E+01  0.5713641E+03  0.7628393E-09  0.3908475E+03 -0.1570796E+01
  0.4723232E+01  0.1404176E+03 -0.1570796E+01  0.5595873E+03 -0.2523083E-08  0.4212805E+03 -0.1570796E+01
  0.4924242E+01  0.1507044E+03 -0.1570796E+01  0.5474471E+03 -0.6124357E-10  0.4521423E+03 -0.1570796E+01
  0.5125252E+01  0.1610971E+03 -0.1570796E+01  0.5349642E+03 -0.3969266E-09  0.4833227E+03 -0.1570796E+01
  0.5326262E+01  0.1715582E+03 -0.1570796E+01  0.5221564E+03 -0.5992924E-09  0.5147062E+03 -0.1570796E+01
  0.5527273E+01  0.1820475E+03 -0.1570796E+01  0.5090456E+03 -0.1463637E-09  0.5461760E+03 -0.1570796E+01
  0.5728283E+01  0.1925251E+03 -0.1570796E+01  0.4956522E+03 -0.1984207E-08  0.5776108E+03 -0.1570796E+01
  0.5929293E+01  0.2029496E+03 -0.1570796E+01  0.4819974E+03 -0.4637316E-10  0.6088845E+03 -0.1570796E+01
  0.6130303E+01  0.2132792E+03 -0.1570796E+01  0.4681045E+03 -0.2546638E-09  0.6398757E+03 -0.1570796E+01
  0.6331313E+01  0.2234706E+03 -0.1570796E+01  0.4539945E+03 -0.4299726E-08  0.6704509E+03 -0.1570796E+01
  0.6532323E+01  0.2334807E+03 -0.1570796E+01  0.4396925E+03 -0.2202847E-09  0.7004809E+03 -0.1570796E+01
  0.6733334E+01  0.2432650E+03 -0.1570796E+01  0.4252220E+03 -0.4485536E-08  0.7298353E+03 -0.1570796E+01
  0.6934343E+01  0.2527791E+03 -0.1570796E+01  0.4106058E+03  0.2413330E-08  0.7583776E+03 -0.1570796E+01
  0.7135354E+01  0.2619783E+03 -0.1570796E+01  0.3958715E+03 -0.6587247E-09  0.7859777E+03 -0.1570796E+01
  0.7336363E+01  0.2708192E+03 -0.1570796E+01  0.3810427E+03  0.5865942E-10  0.8124995E+03 -0.1570796E+01
  0.7537374E+01  0.2792557E+03 -0.1570796E+01  0.3661451E+03  0.2889517E-08  0.8378084E+03 -0.1570796E+01
  0.7738384E+01  0.2872436E+03 -0.1570796E+01  0.3512046E+03 -0.2715438E-08  0.8617756E+03 -0.1570796E+01
  0.7939394E+01  0.2947413E+03 -0.1570796E+01  0.3362480E+03 -0.3190751E-08  0.8842664E+03 -0.1570796E+01
  0.8140405E+01  0.3017041E+03 -0.1570796E+01  0.3213014E+03  0.3084105E-08  0.9051537E+03 -0.1570796E+01
  0.8341414E+01  0.3080899E+03 -0.1570796E+01  0.3063914E+03  0.2553306E-08  0.9243125E+03 -0.1570796E+01
  0.8542424E+01  0.3138586E+03 -0.1570796E+01  0.2915445E+03 -0.2836667E-08  0.9416171E+03 -0.1570796E+01
  0.8743435E+01  0.3189696E+03 -0.1570796E+01  0.2767878E+03 -0.5868130E-08  0.9569537E+03 -0.1570796E+01
  0.8944445E+01  0.3233883E+03 -0.1570796E+01  0.2621476E+03 -0.7247438E-08  0.9702072E+03 -0.1570796E+01
  0.9145455E+01  0.3270763E+03 -0.1570796E+01  0.2476505E+03 -0.4422503E-08  0.9812689E+03 -0.1570796E+01
  0.9346465E+01  0.3300006E+03 -0.1570796E+01  0.2333225E+03 -0.3001659E-08  0.9900424E+03 -0.1570796E+01
  0.9547475E+01  0.3321310E+03 -0.1570796E+01  0.2191899E+03 -0.2685324E-08  0.9964319E+03 -0.1570796E+01
  0.9748485E+01  0.3334377E+03 -0.1570796E+01  0.2052783E+03  0.3629502E-08  0.1000354E+04 -0.1570796E+01
  0.9949495E+01  0.3338973E+03 -0.1570796E+01  0.1916126E+03 -0.5327047E-08  0.1001730E+04 -0.1570796E+01
  0.1015051E+02  0.3334874E+03 -0.1570796E+01  0.1782172E+03  0.9615421E-08  0.1000499E+04 -0.1570796E+01
  0.1035151E+02  0.3321894E+03 -0.1570796E+01  0.1651168E+03 -0.1768825E-07  0.9966039E+03 -0.1570796E+01
  0.1055252E+02  0.3299888E+03 -0.1570796E+01  0.1523335E+03  0.6994084E-08  0.9900023E+03 -0.1570796E+01
  0.1075354E+02  0.3268764E+03 -0.1570796E+01  0.1398906E+03  0.1597801E-08  0.9806631E+03 -0.1570796E+01
  0.1095455E+02  0.3228457E+03 -0.1570796E+01  0.1278089E+03 -0.1643911E-07  0.9685712E+03 -0.1570796E+01
  0.1115556E+02  0.3178950E+03 -0.1570796E+01  0.1161092E+03 -0.6673548E-08  0.9537197E+03 -0.1570796E+01
  0.1135657E+02  0.3120309E+03 -0.1570796E+01  0.1048103E+03  0.9241221E-09  0.9361231E+03 -0.1570796E+01
  0.1155758E+02  0.3052595E+03 -0.1570796E+01  0.9393085E+02 -0.2205092E-07  0.9158091E+03 -0.1570796E+01
  0.1175859E+02  0.2975966E+03 -0.1570796E+01  0.8348680E+02  0.6246983E-09  0.8928188E+03 -0.1570796E+01
  0.1195960E+02  0.2890613E+03 -0.1570796E+01  0.7349409E+02 -0.1267207E-07  0.8672114E+03 -0.1570796E+01
  0.1216061E+02  0.2796786E+03 -0.1570796E+01  0.6396605E+02 -0.8502829E-08  0.8390623E+03 -0.1570796E+01
  0.1236162E+02  0.2694804E+03 -0.1570796E+01  0.5491505E+02 -0.1119316E-07  0.8084668E+03 -0.1570796E+01
  0.1256263E+02  0.2585030E+03 -0.1570796E+01  0.4635166E+02 -0.4026545E-07  0.7755325E+03 -0.1570796E+01
  0.1276364E+02  0.2467891E+03 -0.1570796E+01  0.3828454E+02  0.2627244E-08  0.7403910E+03 -0.1570796E+01
  0.1296465E+02  0.2343871E+03 -0.1570796E+01  0.3072065E+02  0.2037225E-07  0.7031839E+03 -0.1570796E+01
  0.1316566E+02  0.2213513E+03 -0.1570796E+01  0.2366511E+02 -0.8579227E-07  0.6640743E+03 -0.1570796E+01
  0.1336667E+02  0.2077405E+03 -0.1570796E+01  0.1712090E+02 -0.1784215E-07  0.6232403E+03 -0.1570796E+01
  0.1356768E+02  0.1936196E+03 -0.1570796E+01  0.1108936E+02  0.1713262E-07  0.5808783E+03 -0.1570796E+01
  0.1376869E+02  0.1790600E+03 -0.1570796E+01  0.5569396E+01 -0.2468189E-06  0.5371974E+03 -0.1570796E+01
  0.1396970E+02  0.1641346E+03 -0.1570796E+01  0.5580671E+00  0.1421848E-05  0.4924210E+03 -0.1570796E+01
  0.1417071E+02  0.1489231E+03 -0.1570796E+01  0.3949651E+01 -0.3141593E+01  0.4467864E+03 -0.1570796E+01
  0.1437172E+02  0.1335095E+03 -0.1570796E+01  0.7960796E+01 -0.3141593E+01  0.4005449E+03 -0.1570796E+01
  0.1457273E+02  0.1179805E+03 -0.1570796E+01  0.1148463E+02 -0.3141593E+01  0.3539557E+03 -0.1570796E+01
  0.1477374E+02  0.1024246E+03 -0.1570796E+01  0.1453234E+02 -0.3141593E+01  0.3072879E+03 -0.1570796E+01
  0.1497475E+02  0.8693471E+02 -0.1570796E+01  0.1711719E+02 -0.3141593E+01  0.2608174E+03 -0.1570796E+01
  0.1517576E+02  0.7160391E+02 -0.1570796E+01  0.1925431E+02 -0.3141593E+01  0.2148244E+03 -0.1570796E+01
  0.1537677E+02  0.5652678E+02 -0.1570796E+01  0.2096083E+02 -0.3141593E+01  0.1695920E+03 -0.1570796E+01
  0.1557778E+02  0.4179781E+02 -0.1570796E+01  0.2225548E+02 -0.3141593E+01  0.1254046E+03 -0.1570796E+01
  0.1577879E+02  0.2751072E+02 -0.1570796E+01  0.2315906E+02 -0.3141593E+01  0.8254274E+02 -0.1570796E+01
  0.1597980E+02  0.1375745E+02 -0.1570797E+01  0.2369351E+02 -0.3141593E+01  0.4128223E+02 -0.1570797E+01
  0.1618081E+02  0.6276275E+00 -0.1570806E+01  0.2388256E+02 -0.3141593E+01  0.1892198E+01 -0.1570799E+01
  0.1638182E+02  0.1179284E+02  0.1570797E+01  0.2375113E+02 -0.3141593E+01  0.3536977E+02  0.1570797E+01
  0.1658283E+02  0.2342253E+02  0.1570796E+01  0.2332526E+02 -0.3141593E+01  0.7025930E+02  0.1570796E+01
  0.1678384E+02  0.3418543E+02  0.1570796E+01  0.2263205E+02 -0.3141593E+01  0.1025486E+03  0.1570796E+01
  0.1698485E+02  0.4401200E+02  0.1570796E+01  0.2169941E+02 -0.3141593E+01  0.1320286E+03  0.1570796E+01
  0.1718586E+02  0.5284010E+02  0.1570796E+01  0.2055569E+02 -0.3141593E+01  0.1585134E+03  0.1570796E+01
  0.1738687E+02  0.6061560E+02  0.1570796E+01  0.1922976E+02 -0.3141593E+01  0.1818407E+03  0.1570796E+01
  0.1758788E+02  0.6729395E+02  0.1570796E+01  0.1775066E+02 -0.3141593E+01  0.2018761E+03  0.1570796E+01
  0.1778889E+02  0.7284020E+02  0.1570796E+01  0.1614733E+02 -0.3141593E+01  0.2185148E+03  0.1570796E+01
  0.1798990E+02  0.7722997E+02  0.1570796E+01  0.1444841E+02  0.3141593E+01  0.2316847E+03  0.1570796E+01
  0.1819091E+02  0.8045043E+02  0.1570796E+01  0.1268214E+02 -0.3141593E+01  0.2413460E+03  0.1570796E+01
  0.1839192E+02  0.8250005E+02  0.1570796E+01  0.1087588E+02 -0.3141593E+01  0.2474962E+03  0.1570796E+01
  0.1859293E+02  0.8338982E+02  0.1570796E+01  0.9056124E+01 -0.3141593E+01  0.2501655E+03  0.1570796E+01
  0.1879394E+02  0.8314321E+02  0.1570796E+01  0.7248089E+01 -0.3141593E+01  0.2494256E+03  0.1570796E+01
  0.1899495E+02  0.8179539E+02  0.1570796E+01  0.5475632E+01 -0.3141593E+01  0.2453825E+03  0.1570796E+01
  0.1919596E+02  0.7939458E+02  0.1570796E+01  0.3760965E+01 -0.3141593E+01  0.2381808E+03  0.1570796E+01
  0.1939697E+02  0.7600111E+02  0.1570796E+01  0.2124537E+01 -0.3141593E+01  0.2279998E+03  0.1570796E+01
  0.1959798E+02  0.7168653E+02  0.1570796E+01  0.5847700E+00 -0.3141593E+01  0.2150570E+03  0.1570796E+01
  0.1979899E+02  0.6653357E+02  0.1570796E+01  0.8420321E+00 -0.2004700E-06  0.1995981E+03  0.1570796E+01
  0.2000000E+02  0.6063566E+02  0.1570796E+01  0.2141825E+01 -0.1089241E-06  0.1819048E+03  0.1570796E+01
