 VARIABLES="Time (s)"
"AddedMass    1" "IRF    1"
"AddedMass    2" "IRF    2"
"AddedMass    3" "IRF    3"
Zone t="DoF    1",I=   800,F=POINT
  0.0000000E+00  0.2162829E+01  0.1824778E+03 -0.4300597E-07 -0.2476929E-05  0.6489181E+01  0.5474442E+03
  0.1000000E-01  0.2162829E+01  0.1809391E+03 -0.4300597E-07 -0.2431987E-05  0.6489181E+01  0.5428284E+03
  0.2000000E-01  0.2162829E+01  0.1763573E+03 -0.4300597E-07 -0.2298495E-05  0.6489181E+01  0.5290824E+03
  0.3000000E-01  0.2162829E+01  0.1688328E+03 -0.4300597E-07 -0.2080400E-05  0.6489181E+01  0.5065089E+03
  0.4000000E-01  0.2162829E+01  0.1585309E+03 -0.4300597E-07 -0.1784171E-05  0.6489181E+01  0.4756024E+03
  0.5000000E-01  0.2162829E+01  0.1456763E+03 -0.4300597E-07 -0.1418618E-05  0.6489181E+01  0.4370382E+03
  0.6000000E-01  0.2162829E+01  0.1305481E+03 -0.4300597E-07 -0.9946434E-06  0.6489181E+01  0.3916530E+03
  0.7000000E-01  0.2162829E+01  0.1134723E+03 -0.4300597E-07 -0.5249528E-06  0.6489181E+01  0.3404249E+03
  0.8000000E-01  0.2162829E+01  0.9481306E+02 -0.4300597E-07 -0.2370380E-07  0.6489181E+01  0.2844465E+03
  0.9000000E-01  0.2162829E+01  0.7496394E+02 -0.4300597E-07  0.4938796E-06  0.6489181E+01  0.2248983E+03
  0.9999999E-01  0.2162829E+01  0.5433749E+02 -0.4300597E-07  0.1011920E-05  0.6489181E+01  0.1630182E+03
  0.1100000E+00  0.2162829E+01  0.3335512E+02 -0.4300597E-07  0.1514328E-05  0.6489181E+01  0.1000701E+03
  0.1200000E+00  0.2162829E+01  0.1243657E+02 -0.4300597E-07  0.1985238E-05  0.6489181E+01  0.3731362E+02
  0.1300000E+00  0.2162829E+01 -0.8010225E+01 -0.4300597E-07  0.2409438E-05  0.6489181E+01 -0.2402782E+02
  0.1400000E+00  0.2162829E+01 -0.2759904E+02 -0.4300597E-07  0.2772803E-05  0.6489181E+01 -0.8279525E+02
  0.1500000E+00  0.2162829E+01 -0.4597406E+02 -0.4300597E-07  0.3062662E-05  0.6489181E+01 -0.1379212E+03
  0.1600000E+00  0.2162829E+01 -0.6281808E+02 -0.4300597E-07  0.3268164E-05  0.6489181E+01 -0.1884543E+03
  0.1700000E+00  0.2162829E+01 -0.7785912E+02 -0.4300597E-07  0.3380568E-05  0.6489181E+01 -0.2335784E+03
  0.1800000E+00  0.2162829E+01 -0.9087585E+02 -0.4300597E-07  0.3393491E-05  0.6489181E+01 -0.2726295E+03
  0.1900000E+00  0.2162829E+01 -0.1017015E+03 -0.4300597E-07  0.3303087E-05  0.6489181E+01 -0.3051073E+03
  0.2000000E+00  0.2162829E+01 -0.1102262E+03 -0.4300597E-07  0.3108157E-05  0.6489181E+01 -0.3306822E+03
  0.2100000E+00  0.2162829E+01 -0.1163975E+03 -0.4300597E-07  0.2810187E-05  0.6489181E+01 -0.3491969E+03
  0.2200000E+00  0.2162829E+01 -0.1202199E+03 -0.4300597E-07  0.2413322E-05  0.6489181E+01 -0.3606648E+03
  0.2300000E+00  0.2162829E+01 -0.1217519E+03 -0.4300597E-07  0.1924255E-05  0.6489181E+01 -0.3652614E+03
  0.2400000E+00  0.2162829E+01 -0.1211028E+03 -0.4300597E-07  0.1352061E-05  0.6489181E+01 -0.3633144E+03
  0.2500000E+00  0.2162829E+01 -0.1184270E+03 -0.4300597E-07  0.7079609E-06  0.6489181E+01 -0.3552877E+03
  0.2600000E+00  0.2162829E+01 -0.1139186E+03 -0.4300597E-07  0.5024229E-08  0.6489181E+01 -0.3417628E+03
  0.2700000E+00  0.2162829E+01 -0.1078036E+03 -0.4300597E-07 -0.7421621E-06  0.6489181E+01 -0.3234182E+03
  0.2800000E+00  0.2162829E+01 -0.1003331E+03 -0.4300597E-07 -0.1517893E-05  0.6489181E+01 -0.3010068E+03
  0.2900000E+00  0.2162829E+01 -0.9177457E+02 -0.4300597E-07 -0.2305721E-05  0.6489181E+01 -0.2753312E+03
  0.3000000E+00  0.2162829E+01 -0.8240405E+02 -0.4300597E-07 -0.3088918E-05  0.6489181E+01 -0.2472198E+03
  0.3100000E+00  0.2162829E+01 -0.7249826E+02 -0.4300597E-07 -0.3850890E-05  0.6489181E+01 -0.2175024E+03
  0.3200000E+00  0.2162829E+01 -0.6232672E+02 -0.4300597E-07 -0.4575594E-05  0.6489181E+01 -0.1869877E+03
  0.3300000E+00  0.2162829E+01 -0.5214458E+02 -0.4300597E-07 -0.5247967E-05  0.6489181E+01 -0.1564411E+03
  0.3400000E+00  0.2162829E+01 -0.4218663E+02 -0.4300597E-07 -0.5854295E-05  0.6489181E+01 -0.1265670E+03
  0.3500000E+00  0.2162829E+01 -0.3266155E+02 -0.4300597E-07 -0.6382536E-05  0.6489181E+01 -0.9799158E+02
  0.3600000E+00  0.2162829E+01 -0.2374780E+02 -0.4300597E-07 -0.6822642E-05  0.6489181E+01 -0.7124998E+02
  0.3700000E+00  0.2162829E+01 -0.1559031E+02 -0.4300597E-07 -0.7166765E-05  0.6489181E+01 -0.4677713E+02
  0.3800000E+00  0.2162829E+01 -0.8298615E+01 -0.4300597E-07 -0.7409446E-05  0.6489181E+01 -0.2490162E+02
  0.3900000E+00  0.2162829E+01 -0.1946004E+01 -0.4300597E-07 -0.7547705E-05  0.6489181E+01 -0.5843441E+01
  0.4000000E+00  0.2162829E+01  0.3430012E+01 -0.4300597E-07 -0.7581087E-05  0.6489181E+01  0.1028507E+02
  0.4100000E+00  0.2162829E+01  0.7826174E+01 -0.4300597E-07 -0.7511621E-05  0.6489181E+01  0.2347406E+02
  0.4200000E+00  0.2162829E+01  0.1127090E+02 -0.4300597E-07 -0.7343724E-05  0.6489181E+01  0.3380872E+02
  0.4300000E+00  0.2162829E+01  0.1382083E+02 -0.4300597E-07 -0.7084011E-05  0.6489181E+01  0.4145901E+02
  0.4400000E+00  0.2162829E+01  0.1555669E+02 -0.4300597E-07 -0.6741101E-05  0.6489181E+01  0.4666709E+02
  0.4500000E+00  0.2162829E+01  0.1657844E+02 -0.4300597E-07 -0.6325304E-05  0.6489181E+01  0.4973285E+02
  0.4600000E+00  0.2162829E+01  0.1700025E+02 -0.4300597E-07 -0.5848307E-05  0.6489181E+01  0.5099881E+02
  0.4700000E+00  0.2162829E+01  0.1694518E+02 -0.4300597E-07 -0.5322818E-05  0.6489181E+01  0.5083409E+02
  0.4800000E+00  0.2162829E+01  0.1653986E+02 -0.4300597E-07 -0.4762179E-05  0.6489181E+01  0.4961857E+02
  0.4900000E+00  0.2162829E+01  0.1590936E+02 -0.4300597E-07 -0.4179966E-05  0.6489181E+01  0.4772753E+02
  0.5000000E+00  0.2162829E+01  0.1517255E+02 -0.4300597E-07 -0.3589603E-05  0.6489181E+01  0.4551754E+02
  0.5100000E+00  0.2162829E+01  0.1443775E+02 -0.4300597E-07 -0.3003963E-05  0.6489181E+01  0.4331355E+02
  0.5200000E+00  0.2162829E+01  0.1379927E+02 -0.4300597E-07 -0.2435015E-05  0.6489181E+01  0.4139853E+02
  0.5300000E+00  0.2162829E+01  0.1333439E+02 -0.4300597E-07 -0.1893468E-05  0.6489181E+01  0.4000428E+02
  0.5400000E+00  0.2162829E+01  0.1310151E+02 -0.4300597E-07 -0.1388520E-05  0.6489181E+01  0.3930597E+02
  0.5500000E+00  0.2162829E+01  0.1313880E+02 -0.4300597E-07 -0.9275813E-06  0.6489181E+01  0.3941815E+02
  0.5600000E+00  0.2162829E+01  0.1346390E+02 -0.4300597E-07 -0.5161218E-06  0.6489181E+01  0.4039375E+02
  0.5700000E+00  0.2162829E+01  0.1407441E+02 -0.4300597E-07 -0.1575250E-06  0.6489181E+01  0.4222558E+02
  0.5800000E+00  0.2162829E+01  0.1494923E+02 -0.4300597E-07  0.1469540E-06  0.6489181E+01  0.4485020E+02
  0.5900000E+00  0.2162829E+01  0.1605029E+02 -0.4300597E-07  0.3981855E-06  0.6489181E+01  0.4815357E+02
  0.6000000E+00  0.2162829E+01  0.1732535E+02 -0.4300597E-07  0.5990763E-06  0.6489181E+01  0.5197890E+02
  0.6100000E+00  0.2162829E+01  0.1871084E+02 -0.4300597E-07  0.7544493E-06  0.6489181E+01  0.5613553E+02
  0.6200000E+00  0.2162829E+01  0.2013529E+02 -0.4300597E-07  0.8708271E-06  0.6489181E+01  0.6040892E+02
  0.6300000E+00  0.2162829E+01  0.2152284E+02 -0.4300597E-07  0.9562065E-06  0.6489181E+01  0.6457162E+02
  0.6400000E+00  0.2162829E+01  0.2279692E+02 -0.4300597E-07  0.1019749E-05  0.6489181E+01  0.6839389E+02
  0.6500000E+00  0.2162829E+01  0.2388365E+02 -0.4300597E-07  0.1071465E-05  0.6489181E+01  0.7165407E+02
  0.6600000E+00  0.2162829E+01  0.2471522E+02 -0.4300597E-07  0.1121850E-05  0.6489181E+01  0.7414872E+02
  0.6700000E+00  0.2162829E+01  0.2523280E+02 -0.4300597E-07  0.1181537E-05  0.6489181E+01  0.7570136E+02
  0.6800000E+00  0.2162829E+01  0.2538901E+02 -0.4300597E-07  0.1260915E-05  0.6489181E+01  0.7616998E+02
  0.6900000E+00  0.2162829E+01  0.2514997E+02 -0.4300597E-07  0.1369777E-05  0.6489181E+01  0.7545270E+02
  0.7000000E+00  0.2162829E+01  0.2449654E+02 -0.4300597E-07  0.1516980E-05  0.6489181E+01  0.7349231E+02
  0.7100000E+00  0.2162829E+01  0.2342520E+02 -0.4300597E-07  0.1710134E-05  0.6489181E+01  0.7027814E+02
  0.7200000E+00  0.2162829E+01  0.2194804E+02 -0.4300597E-07  0.1955332E-05  0.6489181E+01  0.6584644E+02
  0.7300000E+00  0.2162829E+01  0.2009225E+02 -0.4300597E-07  0.2256930E-05  0.6489181E+01  0.6027894E+02
  0.7400000E+00  0.2162829E+01  0.1789903E+02 -0.4300597E-07  0.2617370E-05  0.6489181E+01  0.5369905E+02
  0.7500000E+00  0.2162829E+01  0.1542192E+02 -0.4300597E-07  0.3037072E-05  0.6489181E+01  0.4626759E+02
  0.7600000E+00  0.2162829E+01  0.1272464E+02 -0.4300597E-07  0.3514379E-05  0.6489181E+01  0.3817553E+02
  0.7700000E+00  0.2162829E+01  0.9878619E+01 -0.4300597E-07  0.4045585E-05  0.6489181E+01  0.2963727E+02
  0.7800000E+00  0.2162829E+01  0.6960281E+01 -0.4300597E-07  0.4624989E-05  0.6489181E+01  0.2088204E+02
  0.7900000E+00  0.2162829E+01  0.4048124E+01 -0.4300597E-07  0.5245038E-05  0.6489181E+01  0.1214542E+02
  0.8000000E+00  0.2162829E+01  0.1219798E+01 -0.4300597E-07  0.5896525E-05  0.6489181E+01  0.3660263E+01
  0.8100000E+00  0.2162829E+01 -0.1450762E+01 -0.4300597E-07  0.6568808E-05  0.6489181E+01 -0.4351583E+01
  0.8200000E+00  0.2162829E+01 -0.3895895E+01 -0.4300597E-07  0.7250100E-05  0.6489181E+01 -0.1168716E+02
  0.8300000E+00  0.2162829E+01 -0.6056725E+01 -0.4300597E-07  0.7927784E-05  0.6489181E+01 -0.1816980E+02
  0.8400000E+00  0.2162829E+01 -0.7885104E+01 -0.4300597E-07  0.8588745E-05  0.6489181E+01 -0.2365504E+02
  0.8500000E+00  0.2162829E+01 -0.9345106E+01 -0.4300597E-07  0.9219732E-05  0.6489181E+01 -0.2803516E+02
  0.8600000E+00  0.2162829E+01 -0.1041416E+02 -0.4300597E-07  0.9807673E-05  0.6489181E+01 -0.3124242E+02
  0.8700000E+00  0.2162829E+01 -0.1108358E+02 -0.4300597E-07  0.1034009E-04  0.6489181E+01 -0.3325076E+02
  0.8800000E+00  0.2162829E+01 -0.1135855E+02 -0.4300597E-07  0.1080533E-04  0.6489181E+01 -0.3407576E+02
  0.8900000E+00  0.2162829E+01 -0.1125767E+02 -0.4300597E-07  0.1119298E-04  0.6489181E+01 -0.3377314E+02
  0.9000000E+00  0.2162829E+01 -0.1081184E+02 -0.4300597E-07  0.1149405E-04  0.6489181E+01 -0.3243572E+02
  0.9100000E+00  0.2162829E+01 -0.1006291E+02 -0.4300597E-07  0.1170121E-04  0.6489181E+01 -0.3018895E+02
  0.9200000E+00  0.2162829E+01 -0.9061810E+01 -0.4300597E-07  0.1180900E-04  0.6489181E+01 -0.2718564E+02
  0.9300000E+00  0.2162829E+01 -0.7866411E+01 -0.4300597E-07  0.1181393E-04  0.6489181E+01 -0.2359947E+02
  0.9400000E+00  0.2162829E+01 -0.6539172E+01 -0.4300597E-07  0.1171453E-04  0.6489181E+01 -0.1961773E+02
  0.9500000E+00  0.2162829E+01 -0.5144670E+01 -0.4300597E-07  0.1151143E-04  0.6489181E+01 -0.1543426E+02
  0.9600000E+00  0.2162829E+01 -0.3747145E+01 -0.4300597E-07  0.1120721E-04  0.6489181E+01 -0.1124167E+02
  0.9700000E+00  0.2162829E+01 -0.2408040E+01 -0.4300597E-07  0.1080641E-04  0.6489181E+01 -0.7224341E+01
  0.9800000E+00  0.2162829E+01 -0.1183731E+01 -0.4300597E-07  0.1031532E-04  0.6489181E+01 -0.3551396E+01
  0.9899999E+00  0.2162829E+01 -0.1235111E+00 -0.4300597E-07  0.9741805E-05  0.6489181E+01 -0.3707451E+00
  0.1000000E+01  0.2162829E+01  0.7320215E+00 -0.4300597E-07  0.9095085E-05  0.6489181E+01  0.2195865E+01
  0.1010000E+01  0.2162829E+01  0.1352397E+01 -0.4300597E-07  0.8385492E-05  0.6489181E+01  0.4057014E+01
  0.1020000E+01  0.2162829E+01  0.1718150E+01 -0.4300597E-07  0.7624159E-05  0.6489181E+01  0.5154252E+01
  0.1030000E+01  0.2162829E+01  0.1821218E+01 -0.4300597E-07  0.6822764E-05  0.6489181E+01  0.5463443E+01
  0.1040000E+01  0.2162829E+01  0.1664993E+01 -0.4300597E-07  0.5993215E-05  0.6489181E+01  0.4994762E+01
  0.1050000E+01  0.2162829E+01  0.1263900E+01 -0.4300597E-07  0.5147369E-05  0.6489181E+01  0.3791447E+01
  0.1060000E+01  0.2162829E+01  0.6424784E+00 -0.4300597E-07  0.4296754E-05  0.6489181E+01  0.1927159E+01
  0.1070000E+01  0.2162829E+01 -0.1657770E+00 -0.4300597E-07  0.3452326E-05  0.6489181E+01 -0.4976707E+00
  0.1080000E+01  0.2162829E+01 -0.1120010E+01 -0.4300597E-07  0.2624217E-05  0.6489181E+01 -0.3360396E+01
  0.1090000E+01  0.2162829E+01 -0.2173860E+01 -0.4300597E-07  0.1821556E-05  0.6489181E+01 -0.6521993E+01
  0.1100000E+01  0.2162829E+01 -0.3277320E+01 -0.4300597E-07  0.1052329E-05  0.6489181E+01 -0.9832425E+01
  0.1110000E+01  0.2162829E+01 -0.4378932E+01 -0.4300597E-07  0.3232127E-06  0.6489181E+01 -0.1313730E+02
  0.1120000E+01  0.2162829E+01 -0.5427883E+01 -0.4300597E-07 -0.3604545E-06  0.6489181E+01 -0.1628421E+02
  0.1130000E+01  0.2162829E+01 -0.6375983E+01 -0.4300597E-07 -0.9947424E-06  0.6489181E+01 -0.1912857E+02
  0.1140000E+01  0.2162829E+01 -0.7179601E+01 -0.4300597E-07 -0.1577093E-05  0.6489181E+01 -0.2153946E+02
  0.1150000E+01  0.2162829E+01 -0.7801359E+01 -0.4300597E-07 -0.2106296E-05  0.6489181E+01 -0.2340479E+02
  0.1160000E+01  0.2162829E+01 -0.8211481E+01 -0.4300597E-07 -0.2582408E-05  0.6489181E+01 -0.2463517E+02
  0.1170000E+01  0.2162829E+01 -0.8388896E+01 -0.4300597E-07 -0.3006624E-05  0.6489181E+01 -0.2516746E+02
  0.1180000E+01  0.2162829E+01 -0.8321955E+01 -0.4300597E-07 -0.3381172E-05  0.6489181E+01 -0.2496665E+02
  0.1190000E+01  0.2162829E+01 -0.8008820E+01 -0.4300597E-07 -0.3709134E-05  0.6489181E+01 -0.2402727E+02
  0.1200000E+01  0.2162829E+01 -0.7457295E+01 -0.4300597E-07 -0.3994298E-05  0.6489181E+01 -0.2237268E+02
  0.1210000E+01  0.2162829E+01 -0.6684490E+01 -0.4300597E-07 -0.4240968E-05  0.6489181E+01 -0.2005425E+02
  0.1220000E+01  0.2162829E+01 -0.5715981E+01 -0.4300597E-07 -0.4453816E-05  0.6489181E+01 -0.1714869E+02
  0.1230000E+01  0.2162829E+01 -0.4584729E+01 -0.4300597E-07 -0.4637684E-05  0.6489181E+01 -0.1375492E+02
  0.1240000E+01  0.2162829E+01 -0.3329742E+01 -0.4300597E-07 -0.4797451E-05  0.6489181E+01 -0.9989893E+01
  0.1250000E+01  0.2162829E+01 -0.1994323E+01 -0.4300597E-07 -0.4937880E-05  0.6489181E+01 -0.5983586E+01
  0.1260000E+01  0.2162829E+01 -0.6245078E+00 -0.4300597E-07 -0.5063507E-05  0.6489181E+01 -0.1874068E+01
  0.1270000E+01  0.2162829E+01  0.7327767E+00 -0.4300597E-07 -0.5178519E-05  0.6489181E+01  0.2197853E+01
  0.1280000E+01  0.2162829E+01  0.2031627E+01 -0.4300597E-07 -0.5286703E-05  0.6489181E+01  0.6094478E+01
  0.1290000E+01  0.2162829E+01  0.3228826E+01 -0.4300597E-07 -0.5391372E-05  0.6489181E+01  0.9686171E+01
  0.1300000E+01  0.2162829E+01  0.4285475E+01 -0.4300597E-07 -0.5495350E-05  0.6489181E+01  0.1285620E+02
  0.1310000E+01  0.2162829E+01  0.5168474E+01 -0.4300597E-07 -0.5600949E-05  0.6489181E+01  0.1550531E+02
  0.1320000E+01  0.2162829E+01  0.5851589E+01 -0.4300597E-07 -0.5710001E-05  0.6489181E+01  0.1755474E+02
  0.1330000E+01  0.2162829E+01  0.6316474E+01 -0.4300597E-07 -0.5823881E-05  0.6489181E+01  0.1894948E+02
  0.1340000E+01  0.2162829E+01  0.6553126E+01 -0.4300597E-07 -0.5943542E-05  0.6489181E+01  0.1965952E+02
  0.1350000E+01  0.2162829E+01  0.6560217E+01 -0.4300597E-07 -0.6069573E-05  0.6489181E+01  0.1968088E+02
  0.1360000E+01  0.2162829E+01  0.6344922E+01 -0.4300597E-07 -0.6202265E-05  0.6489181E+01  0.1903507E+02
  0.1370000E+01  0.2162829E+01  0.5922532E+01 -0.4300597E-07 -0.6341665E-05  0.6489181E+01  0.1776797E+02
  0.1380000E+01  0.2162829E+01  0.5315743E+01 -0.4300597E-07 -0.6487652E-05  0.6489181E+01  0.1594767E+02
  0.1390000E+01  0.2162829E+01  0.4553552E+01 -0.4300597E-07 -0.6639948E-05  0.6489181E+01  0.1366114E+02
  0.1400000E+01  0.2162829E+01  0.3670087E+01 -0.4300597E-07 -0.6798217E-05  0.6489181E+01  0.1101078E+02
  0.1410000E+01  0.2162829E+01  0.2703254E+01 -0.4300597E-07 -0.6962045E-05  0.6489181E+01  0.8110304E+01
  0.1420000E+01  0.2162829E+01  0.1693073E+01 -0.4300597E-07 -0.7131006E-05  0.6489181E+01  0.5079776E+01
  0.1430000E+01  0.2162829E+01  0.6802244E+00 -0.4300597E-07 -0.7304626E-05  0.6489181E+01  0.2041248E+01
  0.1440000E+01  0.2162829E+01 -0.2956850E+00 -0.4300597E-07 -0.7482398E-05  0.6489181E+01 -0.8865127E+00
  0.1450000E+01  0.2162829E+01 -0.1197477E+01 -0.4300597E-07 -0.7663761E-05  0.6489181E+01 -0.3591896E+01
  0.1460000E+01  0.2162829E+01 -0.1991915E+01 -0.4300597E-07 -0.7848050E-05  0.6489181E+01 -0.5975240E+01
  0.1470000E+01  0.2162829E+01 -0.2650821E+01 -0.4300597E-07 -0.8034458E-05  0.6489181E+01 -0.7951992E+01
  0.1480000E+01  0.2162829E+01 -0.3152156E+01 -0.4300597E-07 -0.8222016E-05  0.6489181E+01 -0.9456046E+01
  0.1490000E+01  0.2162829E+01 -0.3480696E+01 -0.4300597E-07 -0.8409491E-05  0.6489181E+01 -0.1044172E+02
  0.1500000E+01  0.2162829E+01 -0.3628466E+01 -0.4300597E-07 -0.8595360E-05  0.6489181E+01 -0.1088512E+02
  0.1510000E+01  0.2162829E+01 -0.3594944E+01 -0.4300597E-07 -0.8777783E-05  0.6489181E+01 -0.1078461E+02
  0.1520000E+01  0.2162829E+01 -0.3386910E+01 -0.4300597E-07 -0.8954528E-05  0.6489181E+01 -0.1016056E+02
  0.1530000E+01  0.2162829E+01 -0.3018002E+01 -0.4300597E-07 -0.9122971E-05  0.6489181E+01 -0.9053920E+01
  0.1540000E+01  0.2162829E+01 -0.2508031E+01 -0.4300597E-07 -0.9280059E-05  0.6489181E+01 -0.7524074E+01
  0.1550000E+01  0.2162829E+01 -0.1882141E+01 -0.4300597E-07 -0.9422368E-05  0.6489181E+01 -0.5646478E+01
  0.1560000E+01  0.2162829E+01 -0.1169523E+01 -0.4300597E-07 -0.9546067E-05  0.6489181E+01 -0.3508689E+01
  0.1570000E+01  0.2162829E+01 -0.4023890E+00 -0.4300597E-07 -0.9646998E-05  0.6489181E+01 -0.1207345E+01
  0.1580000E+01  0.2162829E+01  0.3855947E+00 -0.4300597E-07 -0.9720755E-05  0.6489181E+01  0.1156560E+01
  0.1590000E+01  0.2162829E+01  0.1160513E+01 -0.4300597E-07 -0.9762729E-05  0.6489181E+01  0.3481273E+01
  0.1600000E+01  0.2162829E+01  0.1889684E+01 -0.4300597E-07 -0.9768272E-05  0.6489181E+01  0.5668758E+01
  0.1610000E+01  0.2162829E+01  0.2542915E+01 -0.4300597E-07 -0.9732769E-05  0.6489181E+01  0.7628424E+01
  0.1620000E+01  0.2162829E+01  0.3093610E+01 -0.4300597E-07 -0.9651773E-05  0.6489181E+01  0.9280490E+01
  0.1630000E+01  0.2162829E+01  0.3519930E+01 -0.4300597E-07 -0.9521198E-05  0.6489181E+01  0.1055945E+02
  0.1640000E+01  0.2162829E+01  0.3805472E+01 -0.4300597E-07 -0.9337385E-05  0.6489181E+01  0.1141606E+02
  0.1650000E+01  0.2162829E+01  0.3939791E+01 -0.4300597E-07 -0.9097309E-05  0.6489181E+01  0.1181903E+02
  0.1660000E+01  0.2162829E+01  0.3918928E+01 -0.4300597E-07 -0.8798660E-05  0.6489181E+01  0.1175648E+02
  0.1670000E+01  0.2162829E+01  0.3745231E+01 -0.4300597E-07 -0.8440003E-05  0.6489181E+01  0.1123542E+02
  0.1680000E+01  0.2162829E+01  0.3427312E+01 -0.4300597E-07 -0.8020841E-05  0.6489181E+01  0.1028170E+02
  0.1690000E+01  0.2162829E+01  0.2979549E+01 -0.4300597E-07 -0.7541727E-05  0.6489181E+01  0.8938458E+01
  0.1700000E+01  0.2162829E+01  0.2421357E+01 -0.4300597E-07 -0.7004287E-05  0.6489181E+01  0.7263926E+01
  0.1710000E+01  0.2162829E+01  0.1776424E+01 -0.4300597E-07 -0.6411251E-05  0.6489181E+01  0.5329194E+01
  0.1720000E+01  0.2162829E+01  0.1071645E+01 -0.4300597E-07 -0.5766435E-05  0.6489181E+01  0.3214907E+01
  0.1730000E+01  0.2162829E+01  0.3359140E+00 -0.4300597E-07 -0.5074694E-05  0.6489181E+01  0.1007764E+01
  0.1740000E+01  0.2162829E+01 -0.4009725E+00 -0.4300597E-07 -0.4341869E-05  0.6489181E+01 -0.1202821E+01
  0.1750000E+01  0.2162829E+01 -0.1109565E+01 -0.4300597E-07 -0.3574612E-05  0.6489181E+01 -0.3328552E+01
  0.1760000E+01  0.2162829E+01 -0.1762027E+01 -0.4300597E-07 -0.2780295E-05  0.6489181E+01 -0.5285888E+01
  0.1770000E+01  0.2162829E+01 -0.2333174E+01 -0.4300597E-07 -0.1966828E-05  0.6489181E+01 -0.6999267E+01
  0.1780000E+01  0.2162829E+01 -0.2801419E+01 -0.4300597E-07 -0.1142452E-05  0.6489181E+01 -0.8403975E+01
  0.1790000E+01  0.2162829E+01 -0.3149729E+01 -0.4300597E-07 -0.3155527E-06  0.6489181E+01 -0.9448870E+01
  0.1800000E+01  0.2162829E+01 -0.3366171E+01 -0.4300597E-07  0.5055676E-06  0.6489181E+01 -0.1009816E+02
  0.1810000E+01  0.2162829E+01 -0.3444293E+01 -0.4300597E-07  0.1312906E-05  0.6489181E+01 -0.1033252E+02
  0.1820000E+01  0.2162829E+01 -0.3383421E+01 -0.4300597E-07  0.2098966E-05  0.6489181E+01 -0.1014990E+02
  0.1830000E+01  0.2162829E+01 -0.3188518E+01 -0.4300597E-07  0.2856968E-05  0.6489181E+01 -0.9565181E+01
  0.1840000E+01  0.2162829E+01 -0.2869962E+01 -0.4300597E-07  0.3581028E-05  0.6489181E+01 -0.8609521E+01
  0.1850000E+01  0.2162829E+01 -0.2443072E+01 -0.4300597E-07  0.4266312E-05  0.6489181E+01 -0.7328880E+01
  0.1860000E+01  0.2162829E+01 -0.1927356E+01 -0.4300597E-07  0.4909164E-05  0.6489181E+01 -0.5781754E+01
  0.1870000E+01  0.2162829E+01 -0.1345660E+01 -0.4300597E-07  0.5507174E-05  0.6489181E+01 -0.4036700E+01
  0.1880000E+01  0.2162829E+01 -0.7233164E+00 -0.4300597E-07  0.6059254E-05  0.6489181E+01 -0.2169720E+01
  0.1890000E+01  0.2162829E+01 -0.8695028E-01 -0.4300597E-07  0.6565619E-05  0.6489181E+01 -0.2606613E+00
  0.1900000E+01  0.2162829E+01  0.5365601E+00 -0.4300597E-07  0.7027763E-05  0.6489181E+01  0.1609808E+01
  0.1910000E+01  0.2162829E+01  0.1121259E+01 -0.4300597E-07  0.7448357E-05  0.6489181E+01  0.3363835E+01
  0.1920000E+01  0.2162829E+01  0.1643022E+01 -0.4300597E-07  0.7831138E-05  0.6489181E+01  0.4929073E+01
  0.1930000E+01  0.2162829E+01  0.2080680E+01 -0.4300597E-07  0.8180736E-05  0.6489181E+01  0.6241975E+01
  0.1940000E+01  0.2162829E+01  0.2416799E+01 -0.4300597E-07  0.8502478E-05  0.6489181E+01  0.7250286E+01
  0.1950000E+01  0.2162829E+01  0.2638297E+01 -0.4300597E-07  0.8802169E-05  0.6489181E+01  0.7914716E+01
  0.1960000E+01  0.2162829E+01  0.2737084E+01 -0.4300597E-07  0.9085857E-05  0.6489181E+01  0.8211032E+01
  0.1970000E+01  0.2162829E+01  0.2710172E+01 -0.4300597E-07  0.9359551E-05  0.6489181E+01  0.8130251E+01
  0.1980000E+01  0.2162829E+01  0.2559894E+01 -0.4300597E-07  0.9628985E-05  0.6489181E+01  0.7679378E+01
  0.1990000E+01  0.2162829E+01  0.2293744E+01 -0.4300597E-07  0.9899360E-05  0.6489181E+01  0.6880883E+01
  0.2000000E+01  0.2162829E+01  0.1923882E+01 -0.4300597E-07  0.1017512E-04  0.6489181E+01  0.5771281E+01
  0.2010000E+01  0.2162829E+01  0.1466837E+01 -0.4300597E-07  0.1045968E-04  0.6489181E+01  0.4400132E+01
  0.2020000E+01  0.2162829E+01  0.9426436E+00 -0.4300597E-07  0.1075533E-04  0.6489181E+01  0.2827540E+01
  0.2030000E+01  0.2162829E+01  0.3739812E+00 -0.4300597E-07  0.1106303E-04  0.6489181E+01  0.1121566E+01
  0.2040000E+01  0.2162829E+01 -0.2146941E+00 -0.4300597E-07  0.1138233E-04  0.6489181E+01 -0.6444420E+00
  0.2050000E+01  0.2162829E+01 -0.7981956E+00 -0.4300597E-07  0.1171130E-04  0.6489181E+01 -0.2394931E+01
  0.2060000E+01  0.2162829E+01 -0.1351700E+01 -0.4300597E-07  0.1204656E-04  0.6489181E+01 -0.4055408E+01
  0.2070000E+01  0.2162829E+01 -0.1851636E+01 -0.4300597E-07  0.1238327E-04  0.6489181E+01 -0.5555179E+01
  0.2080000E+01  0.2162829E+01 -0.2276787E+01 -0.4300597E-07  0.1271531E-04  0.6489181E+01 -0.6830590E+01
  0.2090000E+01  0.2162829E+01 -0.2609096E+01 -0.4300597E-07  0.1303538E-04  0.6489181E+01 -0.7827467E+01
  0.2100000E+01  0.2162829E+01 -0.2834270E+01 -0.4300597E-07  0.1333521E-04  0.6489181E+01 -0.8502931E+01
  0.2110000E+01  0.2162829E+01 -0.2942584E+01 -0.4300597E-07  0.1360580E-04  0.6489181E+01 -0.8827818E+01
  0.2120000E+01  0.2162829E+01 -0.2929079E+01 -0.4300597E-07  0.1383769E-04  0.6489181E+01 -0.8787229E+01
  0.2130000E+01  0.2162829E+01 -0.2793807E+01 -0.4300597E-07  0.1402123E-04  0.6489181E+01 -0.8381359E+01
  0.2140000E+01  0.2162829E+01 -0.2541850E+01 -0.4300597E-07  0.1414695E-04  0.6489181E+01 -0.7625443E+01
  0.2150000E+01  0.2162829E+01 -0.2183050E+01 -0.4300597E-07  0.1420577E-04  0.6489181E+01 -0.6548985E+01
  0.2160000E+01  0.2162829E+01 -0.1731635E+01 -0.4300597E-07  0.1418943E-04  0.6489181E+01 -0.5194696E+01
  0.2170000E+01  0.2162829E+01 -0.1205614E+01 -0.4300597E-07  0.1409069E-04  0.6489181E+01 -0.3616583E+01
  0.2180000E+01  0.2162829E+01 -0.6259817E+00 -0.4300597E-07  0.1390361E-04  0.6489181E+01 -0.1877653E+01
  0.2190000E+01  0.2162829E+01 -0.1604882E-01 -0.4300597E-07  0.1362387E-04  0.6489181E+01 -0.4782012E-01
  0.2200000E+01  0.2162829E+01  0.5997133E+00 -0.4300597E-07  0.1324885E-04  0.6489181E+01  0.1799472E+01
  0.2210000E+01  0.2162829E+01  0.1196499E+01 -0.4300597E-07  0.1277781E-04  0.6489181E+01  0.3589841E+01
  0.2220000E+01  0.2162829E+01  0.1750328E+01 -0.4300597E-07  0.1221201E-04  0.6489181E+01  0.5251322E+01
  0.2230000E+01  0.2162829E+01  0.2238811E+01 -0.4300597E-07  0.1155471E-04  0.6489181E+01  0.6716763E+01
  0.2240000E+01  0.2162829E+01  0.2642116E+01 -0.4300597E-07  0.1081113E-04  0.6489181E+01  0.7926661E+01
  0.2250000E+01  0.2162829E+01  0.2943938E+01 -0.4300597E-07  0.9988401E-05  0.6489181E+01  0.8832105E+01
  0.2260000E+01  0.2162829E+01  0.3131886E+01 -0.4300597E-07  0.9095358E-05  0.6489181E+01  0.9395906E+01
  0.2270000E+01  0.2162829E+01  0.3198067E+01 -0.4300597E-07  0.8142414E-05  0.6489181E+01  0.9594399E+01
  0.2280000E+01  0.2162829E+01  0.3139476E+01 -0.4300597E-07  0.7141231E-05  0.6489181E+01  0.9418580E+01
  0.2290000E+01  0.2162829E+01  0.2957981E+01 -0.4300597E-07  0.6104494E-05  0.6489181E+01  0.8874039E+01
  0.2300000E+01  0.2162829E+01  0.2660339E+01 -0.4300597E-07  0.5045553E-05  0.6489181E+01  0.7981069E+01
  0.2310000E+01  0.2162829E+01  0.2257955E+01 -0.4300597E-07  0.3978094E-05  0.6489181E+01  0.6773850E+01
  0.2320000E+01  0.2162829E+01  0.1766277E+01 -0.4300597E-07  0.2915791E-05  0.6489181E+01  0.5298760E+01
  0.2330000E+01  0.2162829E+01  0.1204244E+01 -0.4300597E-07  0.1871932E-05  0.6489181E+01  0.3612607E+01
  0.2340000E+01  0.2162829E+01  0.5937294E+00 -0.4300597E-07  0.8590928E-06  0.6489181E+01  0.1781018E+01
  0.2350000E+01  0.2162829E+01 -0.4160109E-01 -0.4300597E-07 -0.1111948E-06  0.6489181E+01 -0.1250167E+00
  0.2360000E+01  0.2162829E+01 -0.6770944E+00 -0.4300597E-07 -0.1028750E-05  0.6489181E+01 -0.2031537E+01
  0.2370000E+01  0.2162829E+01 -0.1288078E+01 -0.4300597E-07 -0.1884955E-05  0.6489181E+01 -0.3864508E+01
  0.2380000E+01  0.2162829E+01 -0.1850771E+01 -0.4300597E-07 -0.2672994E-05  0.6489181E+01 -0.5552614E+01
  0.2390000E+01  0.2162829E+01 -0.2343382E+01 -0.4300597E-07 -0.3388008E-05  0.6489181E+01 -0.7030452E+01
  0.2400000E+01  0.2162829E+01 -0.2746761E+01 -0.4300597E-07 -0.4027133E-05  0.6489181E+01 -0.8240602E+01
  0.2410000E+01  0.2162829E+01 -0.3045208E+01 -0.4300597E-07 -0.4589604E-05  0.6489181E+01 -0.9135930E+01
  0.2420000E+01  0.2162829E+01 -0.3227203E+01 -0.4300597E-07 -0.5076663E-05  0.6489181E+01 -0.9681897E+01
  0.2430000E+01  0.2162829E+01 -0.3285644E+01 -0.4300597E-07 -0.5491466E-05  0.6489181E+01 -0.9857192E+01
  0.2440000E+01  0.2162829E+01 -0.3218187E+01 -0.4300597E-07 -0.5839002E-05  0.6489181E+01 -0.9654788E+01
  0.2450000E+01  0.2162829E+01 -0.3027480E+01 -0.4300597E-07 -0.6125764E-05  0.6489181E+01 -0.9082622E+01
  0.2460000E+01  0.2162829E+01 -0.2720808E+01 -0.4300597E-07 -0.6359597E-05  0.6489181E+01 -0.8162559E+01
  0.2470000E+01  0.2162829E+01 -0.2309813E+01 -0.4300597E-07 -0.6549383E-05  0.6489181E+01 -0.6929529E+01
  0.2480000E+01  0.2162829E+01 -0.1810358E+01 -0.4300597E-07 -0.6704703E-05  0.6489181E+01 -0.5431107E+01
  0.2490000E+01  0.2162829E+01 -0.1241502E+01 -0.4300597E-07 -0.6835510E-05  0.6489181E+01 -0.3724479E+01
  0.2500000E+01  0.2162829E+01 -0.6249861E+00 -0.4300597E-07 -0.6951787E-05  0.6489181E+01 -0.1874883E+01
  0.2510000E+01  0.2162829E+01  0.1573114E-01 -0.4300597E-07 -0.7063203E-05  0.6489181E+01  0.4732441E-01
  0.2520000E+01  0.2162829E+01  0.6562519E+00 -0.4300597E-07 -0.7178777E-05  0.6489181E+01  0.1968945E+01
  0.2530000E+01  0.2162829E+01  0.1272320E+01 -0.4300597E-07 -0.7306597E-05  0.6489181E+01  0.3817188E+01
  0.2540000E+01  0.2162829E+01  0.1840618E+01 -0.4300597E-07 -0.7453511E-05  0.6489181E+01  0.5522130E+01
  0.2550000E+01  0.2162829E+01  0.2339794E+01 -0.4300597E-07 -0.7624947E-05  0.6489181E+01  0.7019690E+01
  0.2560000E+01  0.2162829E+01  0.2751209E+01 -0.4300597E-07 -0.7824679E-05  0.6489181E+01  0.8253959E+01
  0.2570000E+01  0.2162829E+01  0.3059529E+01 -0.4300597E-07 -0.8054769E-05  0.6489181E+01  0.9178939E+01
  0.2580000E+01  0.2162829E+01  0.3253473E+01 -0.4300597E-07 -0.8315442E-05  0.6489181E+01  0.9760769E+01
  0.2590000E+01  0.2162829E+01  0.3326183E+01 -0.4300597E-07 -0.8605091E-05  0.6489181E+01  0.9978899E+01
  0.2600000E+01  0.2162829E+01  0.3275316E+01 -0.4300597E-07 -0.8920370E-05  0.6489181E+01  0.9826281E+01
  0.2610000E+01  0.2162829E+01  0.3103292E+01 -0.4300597E-07 -0.9256250E-05  0.6489181E+01  0.9310196E+01
  0.2620000E+01  0.2162829E+01  0.2817148E+01 -0.4300597E-07 -0.9606219E-05  0.6489181E+01  0.8451720E+01
  0.2630000E+01  0.2162829E+01  0.2428076E+01 -0.4300597E-07 -0.9962481E-05  0.6489181E+01  0.7284470E+01
  0.2640000E+01  0.2162829E+01  0.1951203E+01 -0.4300597E-07 -0.1031619E-04  0.6489181E+01  0.5853798E+01
  0.2650000E+01  0.2162829E+01  0.1404778E+01 -0.4300597E-07 -0.1065778E-04  0.6489181E+01  0.4214481E+01
  0.2660000E+01  0.2162829E+01  0.8096312E+00 -0.4300597E-07 -0.1097722E-04  0.6489181E+01  0.2428976E+01
  0.2670000E+01  0.2162829E+01  0.1882611E+00 -0.4300597E-07 -0.1126439E-04  0.6489181E+01  0.5648032E+00
  0.2680000E+01  0.2162829E+01 -0.4360161E+00 -0.4300597E-07 -0.1150938E-04  0.6489181E+01 -0.1308095E+01
  0.2690000E+01  0.2162829E+01 -0.1039967E+01 -0.4300597E-07 -0.1170282E-04  0.6489181E+01 -0.3120012E+01
  0.2700000E+01  0.2162829E+01 -0.1601218E+01 -0.4300597E-07 -0.1183612E-04  0.6489181E+01 -0.4803820E+01
  0.2710000E+01  0.2162829E+01 -0.2099309E+01 -0.4300597E-07 -0.1190187E-04  0.6489181E+01 -0.6298161E+01
  0.2720000E+01  0.2162829E+01 -0.2516246E+01 -0.4300597E-07 -0.1189399E-04  0.6489181E+01 -0.7549016E+01
  0.2730000E+01  0.2162829E+01 -0.2837277E+01 -0.4300597E-07 -0.1180796E-04  0.6489181E+01 -0.8512156E+01
  0.2740000E+01  0.2162829E+01 -0.3051404E+01 -0.4300597E-07 -0.1164098E-04  0.6489181E+01 -0.9154571E+01
  0.2750000E+01  0.2162829E+01 -0.3151745E+01 -0.4300597E-07 -0.1139206E-04  0.6489181E+01 -0.9455637E+01
  0.2760000E+01  0.2162829E+01 -0.3135732E+01 -0.4300597E-07 -0.1106207E-04  0.6489181E+01 -0.9407610E+01
  0.2770000E+01  0.2162829E+01 -0.3005243E+01 -0.4300597E-07 -0.1065379E-04  0.6489181E+01 -0.9016153E+01
  0.2780000E+01  0.2162829E+01 -0.2766422E+01 -0.4300597E-07 -0.1017174E-04  0.6489181E+01 -0.8299691E+01