 VARIABLES="Time (s)"
"AddedMass    1" "IRF    1"
"AddedMass    2" "IRF    2"
"AddedMass    3" "IRF    3"
Zone t="DoF    1",I=   160,F=POINT
  0.0000000E+00  0.3644574E+05  0.7533812E+05 -0.2481569E-02 -0.9315295E-02  0.1258534E+06  0.2791992E+06
  0.1000000E+00  0.3644574E+05  0.7332466E+05 -0.2481569E-02 -0.9206394E-02  0.1258534E+06  0.2717066E+06
  0.2000000E+00  0.3644574E+05  0.6741316E+05 -0.2481569E-02 -0.8882103E-02  0.1258534E+06  0.2497094E+06
  0.3000000E+00  0.3644574E+05  0.5798073E+05 -0.2481569E-02 -0.8349719E-02  0.1258534E+06  0.2146150E+06
  0.4000000E+00  0.3644574E+05  0.4562582E+05 -0.2481569E-02 -0.7621550E-02  0.1258534E+06  0.1686562E+06
  0.5000000E+00  0.3644574E+05  0.3112527E+05 -0.2481569E-02 -0.6715082E-02  0.1258534E+06  0.1147312E+06
  0.6000000E+00  0.3644574E+05  0.1537907E+05 -0.2481569E-02 -0.5653100E-02  0.1258534E+06  0.5619690E+05
  0.7000000E+00  0.3644574E+05 -0.6528985E+03 -0.2481569E-02 -0.4463703E-02  0.1258534E+06 -0.3367748E+04
  0.8000000E+00  0.3644574E+05 -0.1601769E+05 -0.2481569E-02 -0.3180069E-02  0.1258534E+06 -0.6041084E+05
  0.9000000E+00  0.3644574E+05 -0.2983402E+05 -0.2481569E-02 -0.1839952E-02  0.1258534E+06 -0.1116499E+06
  0.1000000E+01  0.3644574E+05 -0.4135068E+05 -0.2481569E-02 -0.4848017E-03  0.1258534E+06 -0.1542893E+06
  0.1100000E+01  0.3644574E+05 -0.4999389E+05 -0.2481569E-02  0.8414892E-03  0.1258534E+06 -0.1861977E+06
  0.1200000E+01  0.3644574E+05 -0.5540054E+05 -0.2481569E-02  0.2094213E-02  0.1258534E+06 -0.2060311E+06
  0.1300000E+01  0.3644574E+05 -0.5743504E+05 -0.2481569E-02  0.3229774E-02  0.1258534E+06 -0.2132960E+06
  0.1400000E+01  0.3644574E+05 -0.5618912E+05 -0.2481569E-02  0.4207835E-02  0.1258534E+06 -0.2083471E+06
  0.1500000E+01  0.3644574E+05 -0.5196481E+05 -0.2481569E-02  0.4993533E-02  0.1258534E+06 -0.1923246E+06
  0.1600000E+01  0.3644574E+05 -0.4524281E+05 -0.2481569E-02  0.5559592E-02  0.1258534E+06 -0.1670336E+06
  0.1700000E+01  0.3644574E+05 -0.3663896E+05 -0.2481569E-02  0.5888194E-02  0.1258534E+06 -0.1347825E+06
  0.1800000E+01  0.3644574E+05 -0.2685267E+05 -0.2481569E-02  0.5972400E-02  0.1258534E+06 -0.9818882E+05
  0.1900000E+01  0.3644574E+05 -0.1661165E+05 -0.2481569E-02  0.5817004E-02  0.1258534E+06 -0.5997241E+05
  0.2000000E+01  0.3644574E+05 -0.6617286E+04 -0.2481569E-02  0.5438698E-02  0.1258534E+06 -0.2275180E+05
  0.2100000E+01  0.3644574E+05  0.2504783E+04 -0.2481569E-02  0.4865471E-02  0.1258534E+06  0.1114136E+05
  0.2200000E+01  0.3644574E+05  0.1024570E+05 -0.2481569E-02  0.4135283E-02  0.1258534E+06  0.3981472E+05
  0.2300000E+01  0.3644574E+05  0.1624289E+05 -0.2481569E-02  0.3294009E-02  0.1258534E+06  0.6192542E+05
  0.2400000E+01  0.3644574E+05  0.2029621E+05 -0.2481569E-02  0.2392829E-02  0.1258534E+06  0.7673968E+05
  0.2500000E+01  0.3644574E+05  0.2237034E+05 -0.2481569E-02  0.1485194E-02  0.1258534E+06  0.8414116E+05
  0.2600000E+01  0.3644574E+05  0.2258393E+05 -0.2481569E-02  0.6235789E-03  0.1258534E+06  0.8458930E+05
  0.2700000E+01  0.3644574E+05  0.2118701E+05 -0.2481569E-02 -0.1437108E-03  0.1258534E+06  0.7903425E+05
  0.2800000E+01  0.3644574E+05  0.1852929E+05 -0.2481569E-02 -0.7755163E-03  0.1258534E+06  0.6879744E+05
  0.2900000E+01  0.3644574E+05  0.1502261E+05 -0.2481569E-02 -0.1240285E-02  0.1258534E+06  0.5543024E+05
  0.3000000E+01  0.3644574E+05  0.1110080E+05 -0.2481569E-02 -0.1517887E-02  0.1258534E+06  0.4056377E+05
  0.3100000E+01  0.3644574E+05  0.7180816E+04 -0.2481569E-02 -0.1600642E-02  0.1258534E+06  0.2576257E+05
  0.3200000E+01  0.3644574E+05  0.3628160E+04 -0.2481569E-02 -0.1493466E-02  0.1258534E+06  0.1239559E+05
  0.3300000E+01  0.3644574E+05  0.7293914E+03 -0.2481569E-02 -0.1213149E-02  0.1258534E+06  0.1533067E+04
  0.3400000E+01  0.3644574E+05 -0.1326227E+04 -0.2481569E-02 -0.7868236E-03  0.1258534E+06 -0.6121666E+04
  0.3500000E+01  0.3644574E+05 -0.2455029E+04 -0.2481569E-02 -0.2497605E-03  0.1258534E+06 -0.1026293E+05
  0.3600000E+01  0.3644574E+05 -0.2677078E+04 -0.2481569E-02  0.3573531E-03  0.1258534E+06 -0.1097506E+05
  0.3700000E+01  0.3644574E+05 -0.2104848E+04 -0.2481569E-02  0.9914120E-03  0.1258534E+06 -0.8689384E+04
  0.3800000E+01  0.3644574E+05 -0.9241608E+03 -0.2481569E-02  0.1609941E-02  0.1258534E+06 -0.4112229E+04
  0.3900000E+01  0.3644574E+05  0.6304310E+03 -0.2481569E-02  0.2173972E-02  0.1258534E+06  0.1868025E+04
  0.4000000E+01  0.3644574E+05  0.2303146E+04 -0.2481569E-02  0.2650521E-02  0.1258534E+06  0.8284415E+04
  0.4100000E+01  0.3644574E+05  0.3844728E+04 -0.2481569E-02  0.3014503E-02  0.1258534E+06  0.1419592E+05
  0.4200000E+01  0.3644574E+05  0.5037686E+04 -0.2481569E-02  0.3249955E-02  0.1258534E+06  0.1878229E+05
  0.4300000E+01  0.3644574E+05  0.5716816E+04 -0.2481569E-02  0.3350500E-02  0.1258534E+06  0.2142111E+05
  0.4400000E+01  0.3644574E+05  0.5783417E+04 -0.2481569E-02  0.3319084E-02  0.1258534E+06  0.2174111E+05
  0.4500000E+01  0.3644574E+05  0.5212020E+04 -0.2481569E-02  0.3166995E-02  0.1258534E+06  0.1964729E+05
  0.4600000E+01  0.3644574E+05  0.4049398E+04 -0.2481569E-02  0.2912335E-02  0.1258534E+06  0.1531701E+05
  0.4700000E+01  0.3644574E+05  0.2406508E+04 -0.2481569E-02  0.2578058E-02  0.1258534E+06  0.9169313E+04
  0.4800000E+01  0.3644574E+05  0.4442754E+03 -0.2481569E-02  0.2189801E-02  0.1258534E+06  0.1811479E+04
  0.4900000E+01  0.3644574E+05 -0.1644916E+04 -0.2481569E-02  0.1773651E-02  0.1258534E+06 -0.6030939E+04
  0.5000000E+01  0.3644574E+05 -0.3658203E+04 -0.2481569E-02  0.1354085E-02  0.1258534E+06 -0.1359309E+05
  0.5100000E+01  0.3644574E+05 -0.5403259E+04 -0.2481569E-02  0.9522007E-03  0.1258534E+06 -0.2014999E+05
  0.5200000E+01  0.3644574E+05 -0.6717537E+04 -0.2481569E-02  0.5843886E-03  0.1258534E+06 -0.2508901E+05
  0.5300000E+01  0.3644574E+05 -0.7483748E+04 -0.2481569E-02  0.2615218E-03  0.1258534E+06 -0.2796803E+05
  0.5400000E+01  0.3644574E+05 -0.7640347E+04 -0.2481569E-02 -0.1131860E-04  0.1258534E+06 -0.2855503E+05
  0.5500000E+01  0.3644574E+05 -0.7185937E+04 -0.2481569E-02 -0.2345887E-03  0.1258534E+06 -0.2684450E+05
  0.5600000E+01  0.3644574E+05 -0.6177721E+04 -0.2481569E-02 -0.4135704E-03  0.1258534E+06 -0.2305170E+05
  0.5700000E+01  0.3644574E+05 -0.4724093E+04 -0.2481569E-02 -0.5572902E-03  0.1258534E+06 -0.1758459E+05
  0.5800000E+01  0.3644574E+05 -0.2972484E+04 -0.2481569E-02 -0.6772140E-03  0.1258534E+06 -0.1099821E+05
  0.5900000E+01  0.3644574E+05 -0.1093751E+04 -0.2481569E-02 -0.7858172E-03  0.1258534E+06 -0.3935745E+04
  0.6000000E+01  0.3644574E+05  0.7352874E+03 -0.2481569E-02 -0.8952135E-03  0.1258534E+06  0.2937205E+04
  0.6100000E+01  0.3644574E+05  0.2349170E+04 -0.2481569E-02 -0.1015904E-02  0.1258534E+06  0.8997793E+04
  0.6200000E+01  0.3644574E+05  0.3609560E+04 -0.2481569E-02 -0.1155780E-02  0.1258534E+06  0.1372535E+05
  0.6300000E+01  0.3644574E+05  0.4417650E+04 -0.2481569E-02 -0.1319438E-02  0.1258534E+06  0.1674812E+05
  0.6400000E+01  0.3644574E+05  0.4722451E+04 -0.2481569E-02 -0.1507818E-02  0.1258534E+06  0.1787440E+05
  0.6500000E+01  0.3644574E+05  0.4523953E+04 -0.2481569E-02 -0.1718203E-02  0.1258534E+06  0.1710456E+05
  0.6600000E+01  0.3644574E+05  0.3871177E+04 -0.2481569E-02 -0.1944488E-02  0.1258534E+06  0.1462361E+05
  0.6700000E+01  0.3644574E+05  0.2855544E+04 -0.2481569E-02 -0.2177724E-02  0.1258534E+06  0.1077630E+05
  0.6800000E+01  0.3644574E+05  0.1600280E+04 -0.2481569E-02 -0.2406830E-02  0.1258534E+06  0.6027233E+04
  0.6900000E+01  0.3644574E+05  0.2469594E+03 -0.2481569E-02 -0.2619416E-02  0.1258534E+06  0.9101400E+03
  0.7000000E+01  0.3644574E+05 -0.1059221E+04 -0.2481569E-02 -0.2802620E-02  0.1258534E+06 -0.4027589E+04
  0.7100000E+01  0.3644574E+05 -0.2183957E+04 -0.2481569E-02 -0.2943929E-02  0.1258534E+06 -0.8279536E+04
  0.7200000E+01  0.3644574E+05 -0.3016944E+04 -0.2481569E-02 -0.3031908E-02  0.1258534E+06 -0.1142972E+05
  0.7300000E+01  0.3644574E+05 -0.3481919E+04 -0.2481569E-02 -0.3056825E-02  0.1258534E+06 -0.1319041E+05
  0.7400000E+01  0.3644574E+05 -0.3543202E+04 -0.2481569E-02 -0.3011127E-02  0.1258534E+06 -0.1342683E+05
  0.7500000E+01  0.3644574E+05 -0.3207809E+04 -0.2481569E-02 -0.2889822E-02  0.1258534E+06 -0.1216517E+05
  0.7600000E+01  0.3644574E+05 -0.2523254E+04 -0.2481569E-02 -0.2690741E-02  0.1258534E+06 -0.9584354E+04
  0.7700000E+01  0.3644574E+05 -0.1571407E+04 -0.2481569E-02 -0.2414689E-02  0.1258534E+06 -0.5992930E+04
  0.7800000E+01  0.3644574E+05 -0.4591039E+03 -0.2481569E-02 -0.2065563E-02  0.1258534E+06 -0.1793726E+04
  0.7900000E+01  0.3644574E+05  0.6935507E+03 -0.2481569E-02 -0.1650373E-02  0.1258534E+06  0.2560248E+04
  0.8000000E+01  0.3644574E+05  0.1765653E+04 -0.2481569E-02 -0.1179242E-02  0.1258534E+06  0.6612701E+04
  0.8100000E+01  0.3644574E+05  0.2647974E+04 -0.2481569E-02 -0.6653037E-03  0.1258534E+06  0.9951205E+04
  0.8200000E+01  0.3644574E+05  0.3253517E+04 -0.2481569E-02 -0.1245645E-03  0.1258534E+06  0.1224696E+05
  0.8300000E+01  0.3644574E+05  0.3525852E+04 -0.2481569E-02  0.4243998E-03  0.1258534E+06  0.1328631E+05
  0.8400001E+01  0.3644574E+05  0.3443907E+04 -0.2481569E-02  0.9608466E-03  0.1258534E+06  0.1298884E+05
  0.8500000E+01  0.3644574E+05  0.3023198E+04 -0.2481569E-02  0.1462463E-02  0.1258534E+06  0.1141217E+05
  0.8600000E+01  0.3644574E+05  0.2313214E+04 -0.2481569E-02  0.1906179E-02  0.1258534E+06  0.8742121E+04
  0.8700000E+01  0.3644574E+05  0.1391554E+04 -0.2481569E-02  0.2269141E-02  0.1258534E+06  0.5270763E+04
  0.8800000E+01  0.3644574E+05  0.3552913E+03 -0.2481569E-02  0.2529898E-02  0.1258534E+06  0.1363840E+04
  0.8900001E+01  0.3644574E+05 -0.6892272E+03 -0.2481569E-02  0.2669713E-02  0.1258534E+06 -0.2577588E+04
  0.9000000E+01  0.3644574E+05 -0.1637572E+04 -0.2481569E-02  0.2673950E-02  0.1258534E+06 -0.6159340E+04
  0.9100000E+01  0.3644574E+05 -0.2397517E+04 -0.2481569E-02  0.2533431E-02  0.1258534E+06 -0.9032978E+04
  0.9200000E+01  0.3644574E+05 -0.2898124E+04 -0.2481569E-02  0.2245664E-02  0.1258534E+06 -0.1093004E+05
  0.9300000E+01  0.3644574E+05 -0.3096388E+04 -0.2481569E-02  0.1815791E-02  0.1258534E+06 -0.1168724E+05
  0.9400001E+01  0.3644574E+05 -0.2980765E+04 -0.2481569E-02  0.1257205E-02  0.1258534E+06 -0.1125992E+05
  0.9500000E+01  0.3644574E+05 -0.2571632E+04 -0.2481569E-02  0.5916460E-03  0.1258534E+06 -0.9723795E+04
  0.9600000E+01  0.3644574E+05 -0.1918352E+04 -0.2481569E-02 -0.1512536E-03  0.1258534E+06 -0.7264112E+04
  0.9700000E+01  0.3644574E+05 -0.1093563E+04 -0.2481569E-02 -0.9349746E-03  0.1258534E+06 -0.4154183E+04
  0.9800000E+01  0.3644574E+05 -0.1852688E+03 -0.2481569E-02 -0.1717775E-02  0.1258534E+06 -0.7255836E+03
  0.9900001E+01  0.3644574E+05  0.7124500E+03 -0.2481569E-02 -0.2454798E-02  0.1258534E+06  0.2666734E+04
  0.1000000E+02  0.3644574E+05  0.1509049E+04 -0.2481569E-02 -0.3100657E-02  0.1258534E+06  0.5680777E+04
  0.1010000E+02  0.3644574E+05  0.2126679E+04 -0.2481569E-02 -0.3612282E-02  0.1258534E+06  0.8022049E+04
  0.1020000E+02  0.3644574E+05  0.2507593E+04 -0.2481569E-02 -0.3951770E-02  0.1258534E+06  0.9471604E+04
  0.1030000E+02  0.3644574E+05  0.2619601E+04 -0.2481569E-02 -0.4089195E-02  0.1258534E+06  0.9906700E+04
  0.1040000E+02  0.3644574E+05  0.2458579E+04 -0.2481569E-02 -0.4004940E-02  0.1258534E+06  0.9310425E+04
  0.1050000E+02  0.3644574E+05  0.2048306E+04 -0.2481569E-02 -0.3691573E-02  0.1258534E+06  0.7771200E+04
  0.1060000E+02  0.3644574E+05  0.1437195E+04 -0.2481569E-02 -0.3154875E-02  0.1258534E+06  0.5470615E+04
  0.1070000E+02  0.3644574E+05  0.6929267E+03 -0.2481569E-02 -0.2414108E-02  0.1258534E+06  0.2663300E+04
  0.1080000E+02  0.3644574E+05 -0.1050318E+03 -0.2481569E-02 -0.1501234E-02  0.1258534E+06 -0.3512214E+03
  0.1090000E+02  0.3644574E+05 -0.8736378E+03 -0.2481569E-02 -0.4593714E-03  0.1258534E+06 -0.3259463E+04
  0.1100000E+02  0.3644574E+05 -0.1534900E+04 -0.2481569E-02  0.6597258E-03  0.1258534E+06 -0.5766509E+04
  0.1110000E+02  0.3644574E+05 -0.2023687E+04 -0.2481569E-02  0.1798805E-02  0.1258534E+06 -0.7625554E+04
  0.1120000E+02  0.3644574E+05 -0.2293963E+04 -0.2481569E-02  0.2898667E-02  0.1258534E+06 -0.8661522E+04
  0.1130000E+02  0.3644574E+05 -0.2323101E+04 -0.2481569E-02  0.3902026E-02  0.1258534E+06 -0.8787432E+04
  0.1140000E+02  0.3644574E+05 -0.2113560E+04 -0.2481569E-02  0.4757201E-02  0.1258534E+06 -0.8010985E+04
  0.1150000E+02  0.3644574E+05 -0.1692154E+04 -0.2481569E-02  0.5421491E-02  0.1258534E+06 -0.6431864E+04
  0.1160000E+02  0.3644574E+05 -0.1106616E+04 -0.2481569E-02  0.5863972E-02  0.1258534E+06 -0.4229019E+04
  0.1170000E+02  0.3644574E+05 -0.4204194E+03 -0.2481569E-02  0.6067335E-02  0.1258534E+06 -0.1641166E+04
  0.1180000E+02  0.3644574E+05  0.2941954E+03 -0.2481569E-02  0.6028909E-02  0.1258534E+06  0.1059348E+04
  0.1190000E+02  0.3644574E+05  0.9636476E+03 -0.2481569E-02  0.5760491E-02  0.1258534E+06  0.3594585E+04
  0.1200000E+02  0.3644574E+05  0.1520601E+04 -0.2481569E-02  0.5287210E-02  0.1258534E+06  0.5709629E+04
  0.1210000E+02  0.3644574E+05  0.1910756E+04 -0.2481569E-02  0.4645408E-02  0.1258534E+06  0.7198294E+04
  0.1220000E+02  0.3644574E+05  0.2097907E+04 -0.2481569E-02  0.3879788E-02  0.1258534E+06  0.7922372E+04
  0.1230000E+02  0.3644574E+05  0.2067443E+04 -0.2481569E-02  0.3039961E-02  0.1258534E+06  0.7824886E+04
  0.1240000E+02  0.3644574E+05  0.1827212E+04 -0.2481569E-02  0.2176813E-02  0.1258534E+06  0.6933694E+04
  0.1250000E+02  0.3644574E+05  0.1406375E+04 -0.2481569E-02  0.1338846E-02  0.1258534E+06  0.5357206E+04
  0.1260000E+02  0.3644574E+05  0.8517048E+03 -0.2481569E-02  0.5688553E-03  0.1258534E+06  0.3270694E+04
  0.1270000E+02  0.3644574E+05  0.2228172E+03 -0.2481569E-02 -0.9877857E-04  0.1258534E+06  0.8983426E+03
  0.1280000E+02  0.3644574E+05 -0.4145692E+03 -0.2481569E-02 -0.6400605E-03  0.1258534E+06 -0.1512024E+04
  0.1290000E+02  0.3644574E+05 -0.9951633E+03 -0.2481569E-02 -0.1042392E-02  0.1258534E+06 -0.3713601E+04
  0.1300000E+02  0.3644574E+05 -0.1460992E+04 -0.2481569E-02 -0.1304624E-02  0.1258534E+06 -0.5486601E+04
  0.1310000E+02  0.3644574E+05 -0.1766949E+04 -0.2481569E-02 -0.1436227E-02  0.1258534E+06 -0.6659354E+04
  0.1320000E+02  0.3644574E+05 -0.1885306E+04 -0.2481569E-02 -0.1455543E-02  0.1258534E+06 -0.7125387E+04
  0.1330000E+02  0.3644574E+05 -0.1808071E+04 -0.2481569E-02 -0.1387510E-02  0.1258534E+06 -0.6852579E+04
  0.1340000E+02  0.3644574E+05 -0.1547399E+04 -0.2481569E-02 -0.1260866E-02  0.1258534E+06 -0.5884861E+04
  0.1350000E+02  0.3644574E+05 -0.1133952E+04 -0.2481569E-02 -0.1105327E-02  0.1258534E+06 -0.4336252E+04
  0.1360000E+02  0.3644574E+05 -0.6133683E+03 -0.2481569E-02 -0.9488037E-03  0.1258534E+06 -0.2377722E+04
  0.1370000E+02  0.3644574E+05 -0.4125050E+02 -0.2481569E-02 -0.8150149E-03  0.1258534E+06 -0.2183799E+03
  0.1380000E+02  0.3644574E+05  0.5226790E+03 -0.2481569E-02 -0.7216539E-03  0.1258534E+06  0.1916471E+04
  0.1390000E+02  0.3644574E+05  0.1020763E+04 -0.2481569E-02 -0.6793026E-03  0.1258534E+06  0.3808669E+04
  0.1400000E+02  0.3644574E+05  0.1403384E+04 -0.2481569E-02 -0.6910710E-03  0.1258534E+06  0.5269782E+04
  0.1410000E+02  0.3644574E+05  0.1633762E+04 -0.2481569E-02 -0.7530448E-03  0.1258534E+06  0.6159322E+04
  0.1420000E+02  0.3644574E+05  0.1691415E+04 -0.2481569E-02 -0.8553760E-03  0.1258534E+06  0.6397994E+04
  0.1430000E+02  0.3644574E+05  0.1574061E+04 -0.2481569E-02 -0.9839856E-03  0.1258534E+06  0.5975058E+04
  0.1440000E+02  0.3644574E+05  0.1297376E+04 -0.2481569E-02 -0.1122504E-02  0.1258534E+06  0.4947620E+04
  0.1450000E+02  0.3644574E+05  0.8930799E+03 -0.2481569E-02 -0.1254438E-02  0.1258534E+06  0.3433633E+04
  0.1460000E+02  0.3644574E+05  0.4052573E+03 -0.2481569E-02 -0.1365137E-02  0.1258534E+06  0.1598208E+04
  0.1470000E+02  0.3644574E+05 -0.1141801E+03 -0.2481569E-02 -0.1443535E-02  0.1258534E+06 -0.3633998E+03
  0.1480000E+02  0.3644574E+05 -0.6113552E+03 -0.2481569E-02 -0.1483276E-02  0.1258534E+06 -0.2247823E+04
  0.1490000E+02  0.3644574E+05 -0.1035507E+04 -0.2481569E-02 -0.1483374E-02  0.1258534E+06 -0.3862764E+04
  0.1500000E+02  0.3644574E+05 -0.1344617E+04 -0.2481569E-02 -0.1448101E-02  0.1258534E+06 -0.5048283E+04
  0.1510000E+02  0.3644574E+05 -0.1509191E+04 -0.2481569E-02 -0.1386341E-02  0.1258534E+06 -0.5691210E+04
  0.1520000E+02  0.3644574E+05 -0.1515242E+04 -0.2481569E-02 -0.1310295E-02  0.1258534E+06 -0.5736564E+04
  0.1530000E+02  0.3644574E+05 -0.1365320E+04 -0.2481569E-02 -0.1233890E-02  0.1258534E+06 -0.5191722E+04
  0.1540000E+02  0.3644574E+05 -0.1077977E+04 -0.2481569E-02 -0.1170936E-02  0.1258534E+06 -0.4124539E+04
  0.1550000E+02  0.3644574E+05 -0.6855138E+03 -0.2481569E-02 -0.1133274E-02  0.1258534E+06 -0.2655130E+04
  0.1560000E+02  0.3644574E+05 -0.2303217E+03 -0.2481569E-02 -0.1129168E-02  0.1258534E+06 -0.9422349E+03
  0.1570000E+02  0.3644574E+05  0.2393917E+03 -0.2481569E-02 -0.1162086E-02  0.1258534E+06  0.8327950E+03
  0.1580000E+02  0.3644574E+05  0.6750897E+03 -0.2481569E-02 -0.1230023E-02  0.1258534E+06  0.2486619E+04
  0.1590000E+02  0.3644574E+05  0.1032590E+04 -0.2481569E-02 -0.1325470E-02  0.1258534E+06  0.3851607E+04
Zone t="DoF    2",I=   160,F=POINT
  0.0000000E+00 -0.8254942E-03 -0.1419724E-02  0.6424975E+05  0.8735962E+05 -0.2767761E-02 -0.3637645E-02
  0.1000000E+00 -0.8254942E-03 -0.1377544E-02  0.6424975E+05  0.8571917E+05 -0.2767761E-02 -0.3523218E-02
  0.2000000E+00 -0.8254942E-03 -0.1254046E-02  0.6424975E+05  0.8088853E+05 -0.2767761E-02 -0.3188404E-02
  0.3000000E+00 -0.8254942E-03 -0.1058110E-02  0.6424975E+05  0.7313359E+05 -0.2767761E-02 -0.2657884E-02
  0.4000000E+00 -0.8254942E-03 -0.8037111E-03  0.6424975E+05  0.6287782E+05 -0.2767761E-02 -0.1970414E-02
  0.5000000E+00 -0.8254942E-03 -0.5087696E-03  0.6424975E+05  0.5067397E+05 -0.2767761E-02 -0.1175491E-02
  0.6000000E+00 -0.8254942E-03 -0.1936770E-03  0.6424975E+05  0.3716769E+05 -0.2767761E-02 -0.3291271E-03
  0.7000000E+00 -0.8254942E-03  0.1203565E-03  0.6424975E+05  0.2305545E+05 -0.2767761E-02  0.5108827E-03
  0.8000000E+00 -0.8254942E-03  0.4129979E-03  0.6424975E+05  0.9039991E+04 -0.2767761E-02  0.1289760E-02
  0.9000000E+00 -0.8254942E-03  0.6663764E-03  0.6424975E+05 -0.4213603E+04 -0.2767761E-02  0.1960174E-02
  0.1000000E+01 -0.8254942E-03  0.8664225E-03  0.6424975E+05 -0.1611796E+05 -0.2767761E-02  0.2485903E-02
  0.1100000E+01 -0.8254942E-03  0.1003847E-02  0.6424975E+05 -0.2619699E+05 -0.2767761E-02  0.2844398E-02
  0.1200000E+01 -0.8254942E-03  0.1074682E-02  0.6424975E+05 -0.3411051E+05 -0.2767761E-02  0.3028025E-02
  0.1300000E+01 -0.8254942E-03  0.1080337E-02  0.6424975E+05 -0.3966872E+05 -0.2767761E-02  0.3043912E-02
  0.1400000E+01 -0.8254942E-03  0.1027192E-02  0.6424975E+05 -0.4283560E+05 -0.2767761E-02  0.2912402E-02
  0.1500000E+01 -0.8254942E-03  0.9257571E-03  0.6424975E+05 -0.4372148E+05 -0.2767761E-02  0.2664328E-02
  0.1600000E+01 -0.8254942E-03  0.7894921E-03  0.6424975E+05 -0.4256579E+05 -0.2767761E-02  0.2337357E-02
  0.1700000E+01 -0.8254942E-03  0.6334095E-03  0.6424975E+05 -0.3971158E+05 -0.2767761E-02  0.1971792E-02
  0.1800000E+01 -0.8254942E-03  0.4725818E-03  0.6424975E+05 -0.3557424E+05 -0.2767761E-02  0.1606232E-02
  0.1900000E+01 -0.8254942E-03  0.3207129E-03  0.6424975E+05 -0.3060680E+05 -0.2767761E-02  0.1273565E-02
  0.2000000E+01 -0.8254942E-03  0.1888891E-03  0.6424975E+05 -0.2526481E+05 -0.2767761E-02  0.9976286E-03
  0.2100000E+01 -0.8254942E-03  0.8463111E-04  0.6424975E+05 -0.1997344E+05 -0.2767761E-02  0.7908936E-03
  0.2200000E+01 -0.8254942E-03  0.1134155E-04  0.6424975E+05 -0.1509910E+05 -0.2767761E-02  0.6534346E-03
  0.2300000E+01 -0.8254942E-03 -0.3182620E-04  0.6424975E+05 -0.1092753E+05 -0.2767761E-02  0.5732045E-03
  0.2400000E+01 -0.8254942E-03 -0.4965118E-04  0.6424975E+05 -0.7649911E+04 -0.2767761E-02  0.5276861E-03
  0.2500000E+01 -0.8254942E-03 -0.5013823E-04  0.6424975E+05 -0.5357292E+04 -0.2767761E-02  0.4866597E-03
  0.2600000E+01 -0.8254942E-03 -0.4347880E-04  0.6424975E+05 -0.4043471E+04 -0.2767761E-02  0.4158887E-03
  0.2700000E+01 -0.8254942E-03 -0.4079805E-04  0.6424975E+05 -0.3615507E+04 -0.2767761E-02  0.2813128E-03
  0.2800000E+01 -0.8254942E-03 -0.5281082E-04  0.6424975E+05 -0.3910498E+04 -0.2767761E-02  0.5334484E-04
  0.2900000E+01 -0.8254942E-03 -0.8851333E-04  0.6424975E+05 -0.4716838E+04 -0.2767761E-02 -0.2891492E-03
  0.3000000E+01 -0.8254942E-03 -0.1540578E-03  0.6424975E+05 -0.5797966E+04 -0.2767761E-02 -0.7556289E-03
  0.3100000E+01 -0.8254942E-03 -0.2519058E-03  0.6424975E+05 -0.6916306E+04 -0.2767761E-02 -0.1341725E-02
  0.3200000E+01 -0.8254942E-03 -0.3803465E-03  0.6424975E+05 -0.7855459E+04 -0.2767761E-02 -0.2028372E-02
  0.3300000E+01 -0.8254942E-03 -0.5334498E-03  0.6424975E+05 -0.8438863E+04 -0.2767761E-02 -0.2782427E-02
  0.3400000E+01 -0.8254942E-03 -0.7014319E-03  0.6424975E+05 -0.8543399E+04 -0.2767761E-02 -0.3558647E-02
  0.3500000E+01 -0.8254942E-03 -0.8714295E-03  0.6424975E+05 -0.8107266E+04 -0.2767761E-02 -0.4302961E-02
  0.3600000E+01 -0.8254942E-03 -0.1028599E-02  0.6424975E+05 -0.7131614E+04 -0.2767761E-02 -0.4956726E-02
  0.3700000E+01 -0.8254942E-03 -0.1157434E-02  0.6424975E+05 -0.5676358E+04 -0.2767761E-02 -0.5461580E-02
  0.3800000E+01 -0.8254942E-03 -0.1243196E-02  0.6424975E+05 -0.3850744E+04 -0.2767761E-02 -0.5764496E-02
  0.3900000E+01 -0.8254942E-03 -0.1273318E-02  0.6424975E+05 -0.1799935E+04 -0.2767761E-02 -0.5822595E-02
  0.4000000E+01 -0.8254942E-03 -0.1238639E-02  0.6424975E+05  0.3108960E+03 -0.2767761E-02 -0.5607225E-02
  0.4100000E+01 -0.8254942E-03 -0.1134374E-02  0.6424975E+05  0.2313548E+04 -0.2767761E-02 -0.5106968E-02
  0.4200000E+01 -0.8254942E-03 -0.9607131E-03  0.6424975E+05  0.4053014E+04 -0.2767761E-02 -0.4329321E-02
  0.4300000E+01 -0.8254942E-03 -0.7230056E-03  0.6424975E+05  0.5401587E+04 -0.2767761E-02 -0.3300841E-02
  0.4400000E+01 -0.8254942E-03 -0.4315069E-03  0.6424975E+05  0.6269768E+04 -0.2767761E-02 -0.2065780E-02
  0.4500000E+01 -0.8254942E-03 -0.1006956E-03  0.6424975E+05  0.6613013E+04 -0.2767761E-02 -0.6832356E-03
  0.4600000E+01 -0.8254942E-03  0.2517506E-03  0.6424975E+05  0.6433866E+04 -0.2767761E-02  0.7768394E-03
  0.4700000E+01 -0.8254942E-03  0.6062521E-03  0.6424975E+05  0.5779792E+04 -0.2767761E-02  0.2238501E-02
  0.4800000E+01 -0.8254942E-03  0.9427664E-03  0.6424975E+05  0.4736800E+04 -0.2767761E-02  0.3625098E-02
  0.4900000E+01 -0.8254942E-03  0.1242267E-02  0.6424975E+05  0.3419935E+04 -0.2767761E-02  0.4864614E-02
  0.5000000E+01 -0.8254942E-03  0.1488106E-02  0.6424975E+05  0.1961469E+04 -0.2767761E-02  0.5894510E-02
  0.5100000E+01 -0.8254942E-03  0.1667164E-02  0.6424975E+05  0.4982098E+03 -0.2767761E-02  0.6665761E-02
  0.5200000E+01 -0.8254942E-03  0.1770683E-02  0.6424975E+05 -0.8410312E+03 -0.2767761E-02  0.7145714E-02
  0.5300000E+01 -0.8254942E-03  0.1794738E-02  0.6424975E+05 -0.1946509E+04 -0.2767761E-02  0.7319688E-02
  0.5400000E+01 -0.8254942E-03  0.1740297E-02  0.6424975E+05 -0.2736407E+04 -0.2767761E-02  0.7191045E-02
  0.5500000E+01 -0.8254942E-03  0.1612895E-02  0.6424975E+05 -0.3162440E+04 -0.2767761E-02  0.6779954E-02
  0.5600000E+01 -0.8254942E-03  0.1421960E-02  0.6424975E+05 -0.3212271E+04 -0.2767761E-02  0.6120927E-02
  0.5700000E+01 -0.8254942E-03  0.1179881E-02  0.6424975E+05 -0.2908340E+04 -0.2767761E-02  0.5259437E-02
  0.5800000E+01 -0.8254942E-03  0.9008922E-03  0.6424975E+05 -0.2303610E+04 -0.2767761E-02  0.4247945E-02
  0.5900000E+01 -0.8254942E-03  0.5999068E-03  0.6424975E+05 -0.1474770E+04 -0.2767761E-02  0.3141716E-02
  0.6000000E+01 -0.8254942E-03  0.2913939E-03  0.6424975E+05 -0.5135156E+03 -0.2767761E-02  0.1994811E-02
  0.6100000E+01 -0.8254942E-03 -0.1157363E-04  0.6424975E+05  0.4828338E+03 -0.2767761E-02  0.8566636E-03
  0.6200000E+01 -0.8254942E-03 -0.2980706E-03  0.6424975E+05  0.1420819E+04 -0.2767761E-02 -0.2306501E-03
  0.6300000E+01 -0.8254942E-03 -0.5597284E-03  0.6424975E+05  0.2219224E+04 -0.2767761E-02 -0.1233981E-02
  0.6400000E+01 -0.8254942E-03 -0.7908970E-03  0.6424975E+05  0.2815835E+04 -0.2767761E-02 -0.2129813E-02
  0.6500000E+01 -0.8254942E-03 -0.9884625E-03  0.6424975E+05  0.3171927E+04 -0.2767761E-02 -0.2903797E-02
  0.6600000E+01 -0.8254942E-03 -0.1151418E-02  0.6424975E+05  0.3274107E+04 -0.2767761E-02 -0.3549439E-02
  0.6700000E+01 -0.8254942E-03 -0.1280279E-02  0.6424975E+05  0.3133718E+04 -0.2767761E-02 -0.4066240E-02
  0.6800000E+01 -0.8254942E-03 -0.1376349E-02  0.6424975E+05  0.2783830E+04 -0.2767761E-02 -0.4457315E-02
  0.6900000E+01 -0.8254942E-03 -0.1441033E-02  0.6424975E+05  0.2274279E+04 -0.2767761E-02 -0.4727137E-02
  0.7000000E+01 -0.8254942E-03 -0.1475229E-02  0.6424975E+05  0.1665463E+04 -0.2767761E-02 -0.4879503E-02
  0.7100000E+01 -0.8254942E-03 -0.1478879E-02  0.6424975E+05  0.1021575E+04 -0.2767761E-02 -0.4916003E-02
  0.7200000E+01 -0.8254942E-03 -0.1450791E-02  0.6424975E+05  0.4038409E+03 -0.2767761E-02 -0.4835370E-02
  0.7300000E+01 -0.8254942E-03 -0.1388703E-02  0.6424975E+05 -0.1352797E+03 -0.2767761E-02 -0.4633532E-02
  0.7400000E+01 -0.8254942E-03 -0.1289621E-02  0.6424975E+05 -0.5567265E+03 -0.2767761E-02 -0.4304611E-02
  0.7500000E+01 -0.8254942E-03 -0.1150405E-02  0.6424975E+05 -0.8376000E+03 -0.2767761E-02 -0.3842614E-02
  0.7600000E+01 -0.8254942E-03 -0.9684873E-03  0.6424975E+05 -0.9720825E+03 -0.2767761E-02 -0.3243607E-02
  0.7700000E+01 -0.8254942E-03 -0.7427406E-03  0.6424975E+05 -0.9704512E+03 -0.2767761E-02 -0.2508293E-02
  0.7800000E+01 -0.8254942E-03 -0.4742469E-03  0.6424975E+05 -0.8564536E+03 -0.2767761E-02 -0.1644262E-02
  0.7900000E+01 -0.8254942E-03 -0.1670018E-03  0.6424975E+05 -0.6633486E+03 -0.2767761E-02 -0.6680316E-03
  0.8000000E+01 -0.8254942E-03  0.1716219E-03  0.6424975E+05 -0.4292942E+03 -0.2767761E-02  0.3937159E-03
  0.8100000E+01 -0.8254942E-03  0.5307403E-03  0.6424975E+05 -0.1923022E+03 -0.2767761E-02  0.1503933E-02
  0.8200000E+01 -0.8254942E-03  0.8961331E-03  0.6424975E+05  0.1419300E+02 -0.2767761E-02  0.2615990E-02
  0.8300000E+01 -0.8254942E-03  0.1250837E-02  0.6424975E+05  0.1651520E+03 -0.2767761E-02  0.3675753E-02
  0.8400001E+01 -0.8254942E-03  0.1576073E-02  0.6424975E+05  0.2463852E+03 -0.2767761E-02  0.4624666E-02
  0.8500000E+01 -0.8254942E-03  0.1852447E-02  0.6424975E+05  0.2556788E+03 -0.2767761E-02  0.5403661E-02
  0.8600000E+01 -0.8254942E-03  0.2061408E-02  0.6424975E+05  0.2022714E+03 -0.2767761E-02  0.5957758E-02
  0.8700000E+01 -0.8254942E-03  0.2186727E-02  0.6424975E+05  0.1050319E+03 -0.2767761E-02  0.6240672E-02
  0.8800000E+01 -0.8254942E-03  0.2215973E-02  0.6424975E+05 -0.1057261E+02 -0.2767761E-02  0.6219269E-02
  0.8900001E+01 -0.8254942E-03  0.2141780E-02  0.6424975E+05 -0.1161090E+03 -0.2767761E-02  0.5877278E-02
  0.9000000E+01 -0.8254942E-03  0.1962805E-02  0.6424975E+05 -0.1844795E+03 -0.2767761E-02  0.5217927E-02
  0.9100000E+01 -0.8254942E-03  0.1684254E-02  0.6424975E+05 -0.1934926E+03 -0.2767761E-02  0.4265110E-02
  0.9200000E+01 -0.8254942E-03  0.1317936E-02  0.6424975E+05 -0.1292520E+03 -0.2767761E-02  0.3063060E-02
  0.9300000E+01 -0.8254942E-03  0.8817629E-03  0.6424975E+05  0.1170496E+02 -0.2767761E-02  0.1674218E-02
  0.9400001E+01 -0.8254942E-03  0.3987750E-03  0.6424975E+05  0.2215153E+03 -0.2767761E-02  0.1756541E-03
  0.9500000E+01 -0.8254942E-03 -0.1042945E-03  0.6424975E+05  0.4814576E+03 -0.2767761E-02 -0.1345898E-02
  0.9600000E+01 -0.8254942E-03 -0.5988252E-03  0.6424975E+05  0.7638183E+03 -0.2767761E-02 -0.2800065E-02
  0.9700000E+01 -0.8254942E-03 -0.1056275E-02  0.6424975E+05  0.1034858E+04 -0.2767761E-02 -0.4099214E-02
  0.9800000E+01 -0.8254942E-03 -0.1450231E-02  0.6424975E+05  0.1258625E+04 -0.2767761E-02 -0.5164924E-02
  0.9900001E+01 -0.8254942E-03 -0.1758312E-02  0.6424975E+05  0.1401211E+04 -0.2767761E-02 -0.5933817E-02
  0.1000000E+02 -0.8254942E-03 -0.1963815E-02  0.6424975E+05  0.1434808E+04 -0.2767761E-02 -0.6362381E-02
  0.1010000E+02 -0.8254942E-03 -0.2056921E-02  0.6424975E+05  0.1341487E+04 -0.2767761E-02 -0.6430231E-02
  0.1020000E+02 -0.8254942E-03 -0.2035393E-02  0.6424975E+05  0.1115685E+04 -0.2767761E-02 -0.6141665E-02
  0.1030000E+02 -0.8254942E-03 -0.1904654E-02  0.6424975E+05  0.7657859E+03 -0.2767761E-02 -0.5525137E-02
  0.1040000E+02 -0.8254942E-03 -0.1677290E-02  0.6424975E+05  0.3139524E+03 -0.2767761E-02 -0.4630917E-02
  0.1050000E+02 -0.8254942E-03 -0.1371975E-02  0.6424975E+05 -0.2052581E+03 -0.2767761E-02 -0.3526915E-02
  0.1060000E+02 -0.8254942E-03 -0.1011936E-02  0.6424975E+05 -0.7479668E+03 -0.2767761E-02 -0.2293192E-02
  0.1070000E+02 -0.8254942E-03 -0.6230822E-03  0.6424975E+05 -0.1264790E+04 -0.2767761E-02 -0.1015526E-02
  0.1080000E+02 -0.8254942E-03 -0.2319262E-03  0.6424975E+05 -0.1705731E+04 -0.2767761E-02  0.2214707E-03
  0.1090000E+02 -0.8254942E-03  0.1364670E-03  0.6424975E+05 -0.2024958E+04 -0.2767761E-02  0.1340927E-02
  0.1100000E+02 -0.8254942E-03  0.4603551E-03  0.6424975E+05 -0.2185679E+04 -0.2767761E-02  0.2279463E-02
  0.1110000E+02 -0.8254942E-03  0.7228937E-03  0.6424975E+05 -0.2164100E+04 -0.2767761E-02  0.2991791E-02
  0.1120000E+02 -0.8254942E-03  0.9131912E-03  0.6424975E+05 -0.1952260E+04 -0.2767761E-02  0.3453430E-02
  0.1130000E+02 -0.8254942E-03  0.1026867E-02  0.6424975E+05 -0.1559398E+04 -0.2767761E-02  0.3661696E-02
  0.1140000E+02 -0.8254942E-03  0.1065977E-02  0.6424975E+05 -0.1011808E+04 -0.2767761E-02  0.3634587E-02
  0.1150000E+02 -0.8254942E-03  0.1038393E-02  0.6424975E+05 -0.3509334E+03 -0.2767761E-02  0.3407911E-02
  0.1160000E+02 -0.8254942E-03  0.9566745E-03  0.6424975E+05  0.3700512E+03 -0.2767761E-02  0.3030816E-02
  0.1170000E+02 -0.8254942E-03  0.8365391E-03  0.6424975E+05  0.1090658E+04 -0.2767761E-02  0.2560227E-02