VARIABLES="w (rad/s)"
"abs(F   1   1)" "angle(F   1   1)"
"abs(F   1   2)" "angle(F   1   2)"
"abs(F   1   3)" "angle(F   1   3)"
Zone t="FKforce - beta =   0.000",I=    32,F=POINT
  0.1000000E+00  0.1929213E+01 -0.1570810E+01  0.1135504E+05 -0.1771599E-10  0.6520892E+01 -0.1570812E+01
  0.2000000E+00  0.7713570E+01 -0.1570761E+01  0.1134924E+05 -0.7549551E-11  0.2607279E+02 -0.1570805E+01
  0.3000000E+00  0.1734324E+02 -0.1570792E+01  0.1133956E+05  0.9330015E-10  0.5862333E+02 -0.1570794E+01
  0.4000000E+00  0.3080175E+02 -0.1570794E+01  0.1132602E+05  0.6841420E-10  0.1041185E+03 -0.1570797E+01
  0.5000000E+00  0.4806607E+02 -0.1570802E+01  0.1130854E+05 -0.2490437E-09  0.1624824E+03 -0.1570797E+01
  0.6000001E+00  0.6910640E+02 -0.1570797E+01  0.1128712E+05  0.8449226E-10  0.2336172E+03 -0.1570796E+01
  0.7000000E+00  0.9388615E+02 -0.1570796E+01  0.1126172E+05  0.1217316E-09  0.3174022E+03 -0.1570796E+01
  0.8000001E+00  0.1223619E+03 -0.1570795E+01  0.1123228E+05 -0.2653274E-10  0.4136950E+03 -0.1570797E+01
  0.9000000E+00  0.1544835E+03 -0.1570796E+01  0.1119878E+05  0.1181578E-08  0.5223294E+03 -0.1570797E+01
  0.1000000E+01  0.1901930E+03 -0.1570796E+01  0.1116113E+05 -0.3845070E-09  0.6431154E+03 -0.1570796E+01
  0.1100000E+01  0.2294264E+03 -0.1570797E+01  0.1111930E+05 -0.2251396E-09  0.7758398E+03 -0.1570797E+01
  0.1200000E+01  0.2721110E+03 -0.1570797E+01  0.1107319E+05  0.1883976E-08  0.9202648E+03 -0.1570796E+01
  0.1300000E+01  0.3181677E+03 -0.1570796E+01  0.1102275E+05 -0.2703711E-09  0.1076126E+04 -0.1570796E+01
  0.1400000E+01  0.3675089E+03 -0.1570796E+01  0.1096790E+05  0.3097643E-08  0.1243135E+04 -0.1570797E+01
  0.1500000E+01  0.4200398E+03 -0.1570796E+01  0.1090856E+05  0.3507906E-08  0.1420977E+04 -0.1570796E+01
  0.1600000E+01  0.4756572E+03 -0.1570796E+01  0.1084463E+05 -0.2715140E-08  0.1609309E+04 -0.1570796E+01
  0.1700000E+01  0.5342496E+03 -0.1570796E+01  0.1077604E+05  0.5509095E-08  0.1807762E+04 -0.1570796E+01
  0.1800000E+01  0.5956979E+03 -0.1570796E+01  0.1070270E+05  0.2650903E-08  0.2015936E+04 -0.1570796E+01
  0.1900000E+01  0.6598740E+03 -0.1570796E+01  0.1062450E+05  0.4892017E-08  0.2233405E+04 -0.1570796E+01
  0.2000000E+01  0.7266411E+03 -0.1570796E+01  0.1054137E+05 -0.2080803E-08  0.2459714E+04 -0.1570796E+01
  0.2100000E+01  0.7958525E+03 -0.1570796E+01  0.1045319E+05  0.1140410E-09  0.2694372E+04 -0.1570796E+01
  0.2200000E+01  0.8673552E+03 -0.1570796E+01  0.1035988E+05  0.4579713E-08  0.2936867E+04 -0.1570796E+01
  0.2300000E+01  0.9409849E+03 -0.1570796E+01  0.1026136E+05  0.5948058E-08  0.3186646E+04 -0.1570796E+01
  0.2400000E+01  0.1016569E+04 -0.1570797E+01  0.1015751E+05  0.3614712E-08  0.3443131E+04 -0.1570796E+01
  0.2500000E+01  0.1093925E+04 -0.1570797E+01  0.1004825E+05  0.7450395E-08  0.3705712E+04 -0.1570797E+01
  0.2600000E+01  0.1172863E+04 -0.1570796E+01  0.9933506E+04  0.6720407E-08  0.3973740E+04 -0.1570796E+01
  0.2700000E+01  0.1253182E+04 -0.1570796E+01  0.9813188E+04 -0.3401402E-09  0.4246548E+04 -0.1570796E+01
  0.2800000E+01  0.1334672E+04 -0.1570796E+01  0.9687229E+04  0.1038611E-07  0.4523423E+04 -0.1570796E+01
  0.2900000E+01  0.1417114E+04 -0.1570796E+01  0.9555550E+04  0.1147737E-08  0.4803626E+04 -0.1570797E+01
  0.3000000E+01  0.1500279E+04 -0.1570796E+01  0.9418097E+04  0.1204991E-07  0.5086385E+04 -0.1570796E+01
  0.3100000E+01  0.1583932E+04 -0.1570796E+01  0.9274814E+04 -0.7249098E-08  0.5370898E+04 -0.1570796E+01
  0.3200000E+01  0.1667828E+04 -0.1570796E+01  0.9125669E+04  0.5590996E-08  0.5656333E+04 -0.1570796E+01
