VARIABLES="w (rad/s)"
"A   1   1" "B   1   1"
"A   1   2" "B   1   2"
"A   1   3" "B   1   3"
Zone t="Motion of body    1 in DoF   1",I=    32,F=POINT
  0.1000000E+00  0.1643403E+05  0.8649736E-04 -0.2534911E-02 -0.1995553E-05  0.7418722E+05  0.4004002E-03
  0.2000000E+00  0.1650813E+05  0.1066907E-01 -0.1691282E-03 -0.3681795E-05  0.7448985E+05  0.4980057E-01
  0.3000000E+00  0.1658507E+05  0.1798033E+00 -0.1342336E-01 -0.2918457E-03  0.7486670E+05  0.8399364E+00
  0.4000000E+00  0.1669285E+05  0.1322303E+01 -0.8296743E-02 -0.4276741E-03  0.7537919E+05  0.6181058E+01
  0.5000000E+00  0.1684221E+05  0.6154602E+01  0.5181670E-02  0.3981922E-03  0.7609686E+05  0.2879517E+02
  0.6000001E+00  0.1703054E+05  0.2139670E+02 -0.1583000E-01 -0.2550345E-02  0.7700076E+05  0.1002155E+03
  0.7000000E+00  0.1726031E+05  0.6069131E+02 -0.1458262E-01 -0.4134987E-02  0.7808489E+05  0.2845957E+03
  0.8000001E+00  0.1759167E+05  0.1480548E+03 -0.2723247E-01 -0.8683616E-02  0.7968092E+05  0.6952603E+03
  0.9000000E+00  0.1794707E+05  0.3207247E+03 -0.3462566E-02 -0.2120947E-02  0.8138112E+05  0.1508392E+04
  0.1000000E+01  0.1838337E+05  0.6311320E+03  0.1922011E-02  0.2723217E-02  0.8348402E+05  0.2973279E+04
  0.1100000E+01  0.1880376E+05  0.1143676E+04  0.5643151E-02  0.4026363E-02  0.8549884E+05  0.5397234E+04
  0.1200000E+01  0.1924553E+05  0.1926901E+04 -0.3250539E-02 -0.4983749E-02  0.8765863E+05  0.9110489E+04
  0.1300000E+01  0.1958346E+05  0.3043411E+04 -0.6658389E-02 -0.6036744E-02  0.8930289E+05  0.1441821E+05
  0.1400000E+01  0.1976386E+05  0.4519160E+04  0.3428374E-02  0.6534316E-02  0.9021420E+05  0.2145358E+05
  0.1500000E+01  0.1975872E+05  0.6332776E+04 -0.1625379E-02 -0.5012006E-02  0.9025924E+05  0.3012704E+05
  0.1600000E+01  0.1952962E+05  0.8401919E+04 -0.9154528E-03  0.1665846E-02  0.8923543E+05  0.4005577E+05
  0.1700000E+01  0.1906947E+05  0.1059885E+05 -0.2860111E-02 -0.5362511E-02  0.8710226E+05  0.5063864E+05
  0.1800000E+01  0.1840304E+05  0.1277545E+05 -0.4887581E-03 -0.7597268E-02  0.8397310E+05  0.6117019E+05
  0.1900000E+01  0.1758443E+05  0.1479852E+05  0.2478299E-03  0.3693134E-02  0.8010123E+05  0.7101007E+05
  0.2000000E+01  0.1668078E+05  0.1657017E+05 -0.2951264E-02 -0.5551040E-02  0.7580327E+05  0.7968193E+05
  0.2100000E+01  0.1575160E+05  0.1803740E+05 -0.6972608E-03 -0.4605502E-02  0.7136377E+05  0.8692152E+05
  0.2200000E+01  0.1484238E+05  0.1919180E+05 -0.1156113E-02 -0.1930743E-02  0.6700234E+05  0.9267813E+05
  0.2300000E+01  0.1398980E+05  0.2004480E+05  0.2176347E-02  0.9088427E-02  0.6289515E+05  0.9699634E+05
  0.2400000E+01  0.1321039E+05  0.2062892E+05  0.1820028E-02 -0.2697885E-02  0.5912571E+05  0.1000233E+06
  0.2500000E+01  0.1251159E+05  0.2098655E+05 -0.2610779E-02 -0.1746356E-02  0.5573255E+05  0.1019552E+06
  0.2600000E+01  0.1189499E+05  0.2114761E+05 -0.2282675E-02 -0.2459526E-02  0.5272762E+05  0.1029342E+06
  0.2700000E+01  0.1135689E+05  0.2115244E+05 -0.5098007E-02 -0.5483985E-02  0.5009303E+05  0.1031471E+06
  0.2800000E+01  0.1089217E+05  0.2102745E+05 -0.1709802E-02 -0.2022117E-02  0.4780782E+05  0.1027213E+06
  0.2900000E+01  0.1049128E+05  0.2080212E+05  0.2370456E-02  0.4649162E-05  0.4582948E+05  0.1017964E+06
  0.3000000E+01  0.1014808E+05  0.2048732E+05 -0.3411452E-02 -0.7918537E-02  0.4412881E+05  0.1004233E+06
  0.3100000E+01  0.9853773E+04  0.2009419E+05 -0.1412592E-02 -0.1064971E-02  0.4266307E+05  0.9865284E+05
  0.3200000E+01  0.9602856E+04  0.1962163E+05  0.9037554E-03  0.8724630E-04  0.4141118E+05  0.9648173E+05
Zone t="Motion of body    1 in DoF   2",I=    32,F=POINT
  0.1000000E+00 -0.6884336E-03 -0.3669411E-06  0.7675555E+05  0.6490829E+02 -0.2601743E-02  0.1820736E-05
  0.2000000E+00 -0.3331900E-03  0.1467764E-05  0.7834471E+05  0.5087857E+03 -0.2235174E-03 -0.1548044E-04
  0.3000000E+00 -0.2942880E-02 -0.8344650E-05  0.7976671E+05  0.1657976E+04 -0.1888514E-01 -0.5888194E-04
  0.4000000E+00 -0.1897812E-02  0.3296137E-04  0.8055391E+05  0.3736492E+04 -0.1220196E-01  0.1981854E-05
  0.5000000E+00  0.2532959E-02  0.1188517E-03  0.8049504E+05  0.6830288E+04  0.1989436E-01  0.1702011E-03
  0.6000001E+00 -0.4568894E-02 -0.1071095E-03  0.7947808E+05  0.1087759E+05 -0.1825173E-01  0.5097985E-03
  0.7000000E+00 -0.2117157E-02  0.2410412E-03  0.7753154E+05  0.1568907E+05 -0.1382708E-01  0.1015365E-02
  0.8000001E+00 -0.4855394E-02  0.1505613E-03  0.7472959E+05  0.2100090E+05 -0.2604931E-01  0.1066267E-02
  0.9000000E+00  0.2728568E-02  0.4780293E-03  0.7138122E+05  0.2650649E+05  0.1371516E-01  0.1997411E-02
  0.1000000E+01  0.3000259E-02  0.4205704E-03  0.6759441E+05  0.3194274E+05  0.1199937E-01  0.2001762E-02
  0.1100000E+01  0.4166256E-02 -0.3154278E-03  0.6367602E+05  0.3705652E+05  0.1703566E-01 -0.7511377E-03
  0.1200000E+01  0.4092852E-03  0.1385212E-03  0.5972459E+05  0.4171479E+05 -0.1266797E-02  0.8128881E-03
  0.1300000E+01 -0.1882040E-02 -0.3523827E-03  0.5590103E+05  0.4578051E+05 -0.7887620E-02  0.1834869E-02
  0.1400000E+01  0.2202647E-02  0.1117945E-02  0.5232502E+05  0.4919077E+05  0.1144511E-01  0.4582763E-02
  0.1500000E+01 -0.1718521E-02  0.4911423E-03  0.4902046E+05  0.5195931E+05 -0.1127720E-01  0.3920555E-02
  0.1600000E+01 -0.5227327E-03 -0.1065731E-02  0.4601310E+05  0.5410814E+05 -0.3723353E-02 -0.7711649E-03
  0.1700000E+01  0.1657710E-03 -0.5145073E-03  0.4331573E+05  0.5567514E+05 -0.1128982E-03 -0.4002333E-02
  0.1800000E+01 -0.1600054E-02 -0.1839638E-02  0.4092380E+05  0.5670857E+05 -0.6695986E-02 -0.4336953E-02
  0.1900000E+01  0.1813236E-02  0.3415823E-02  0.3882740E+05  0.5727064E+05  0.7335010E-02  0.1526296E-01
  0.2000000E+01 -0.1401901E-02  0.1058578E-03  0.3700527E+05  0.5740867E+05 -0.4971862E-02  0.2335787E-02
  0.2100000E+01 -0.7136663E-03 -0.1041889E-03  0.3543578E+05  0.5717305E+05 -0.3692536E-02 -0.1815915E-02
  0.2200000E+01 -0.1941811E-02 -0.2256393E-02  0.3409956E+05  0.5662998E+05 -0.6133534E-02 -0.1252878E-01
  0.2300000E+01  0.2939390E-02  0.4179478E-02  0.3296517E+05  0.5580734E+05  0.9326417E-02  0.1955116E-01
  0.2400000E+01  0.8128086E-03  0.4419565E-02  0.3201166E+05  0.5473514E+05  0.2346833E-02  0.1784575E-01
  0.2500000E+01 -0.3864288E-03 -0.8568764E-03  0.3122167E+05  0.5345595E+05 -0.2519608E-02 -0.4174709E-02
  0.2600000E+01  0.6162203E-04  0.4004478E-02  0.3056264E+05  0.5194557E+05  0.1463523E-03  0.1637906E-01
  0.2700000E+01 -0.2193804E-02  0.7482767E-02  0.3001612E+05  0.5016827E+05 -0.4415424E-02  0.3401965E-01
  0.2800000E+01 -0.8661406E-03  0.5788684E-02  0.2955186E+05  0.4792825E+05 -0.3692848E-02  0.3218079E-01
  0.2900000E+01 -0.6356732E-03 -0.3891826E-02  0.2911671E+05  0.4452496E+05 -0.2781358E-02 -0.1881218E-01
  0.3000000E+01 -0.9746552E-03  0.6917357E-02  0.2778704E+05  0.3219220E+05 -0.3831943E-02  0.3558764E-01
  0.3100000E+01 -0.1199784E-03  0.3483534E-02  0.2906056E+05  0.5794070E+05  0.7427893E-02  0.2328277E-01
  0.3200000E+01 -0.2455711E-03 -0.4536271E-02  0.2896857E+05  0.4896363E+05  0.6689131E-03 -0.1556015E-01
Zone t="Motion of body    1 in DoF   3",I=    32,F=POINT
  0.1000000E+00  0.7421090E+05  0.3998505E-03 -0.7695258E-02 -0.9457966E-05  0.3454818E+06  0.1855225E-02
  0.2000000E+00  0.7451066E+05  0.4982801E-01 -0.2145618E-02  0.2035401E-04  0.3467345E+06  0.2326183E+00
  0.3000000E+00  0.7489449E+05  0.8402926E+00 -0.5786796E-01 -0.1254773E-02  0.3486261E+06  0.3925319E+01
  0.4000000E+00  0.7540298E+05  0.6183672E+01 -0.4276022E-01 -0.2040053E-02  0.3510378E+06  0.2890525E+02
  0.5000000E+00  0.7612168E+05  0.2880717E+02  0.2894378E-01  0.2477950E-02  0.3544938E+06  0.1347783E+03
  0.6000001E+00  0.7702884E+05  0.1002552E+03 -0.7789075E-01 -0.1190479E-01  0.3588532E+06  0.4695642E+03
  0.7000000E+00  0.7810752E+05  0.2847286E+03 -0.8764046E-01 -0.2216776E-01  0.3639292E+06  0.1335159E+04
  0.8000001E+00  0.7970443E+05  0.6955618E+03 -0.1314910E+00 -0.4379490E-01  0.3716270E+06  0.3266335E+04
  0.9000000E+00  0.8140675E+05  0.1509016E+04  0.8844005E-03 -0.1230434E-02  0.3797716E+06  0.7097012E+04
  0.1000000E+01  0.8350915E+05  0.2974502E+04  0.2628136E-01  0.1636565E-01  0.3899065E+06  0.1401300E+05
  0.1100000E+01  0.8552159E+05  0.5399669E+04  0.3912362E-01  0.2790171E-01  0.3995453E+06  0.2548215E+05
  0.1200000E+01  0.8768783E+05  0.9113526E+04 -0.8299549E-02 -0.1552337E-01  0.4101462E+06  0.4308893E+05
  0.1300000E+01  0.8932515E+05  0.1442552E+05 -0.2807141E-01 -0.3054786E-01  0.4180956E+06  0.6834183E+05
  0.1400000E+01  0.9023623E+05  0.2146435E+05  0.1393454E-01  0.2718151E-01  0.4226869E+06  0.1018981E+06
  0.1500000E+01  0.9028395E+05  0.3014210E+05 -0.1188819E-01 -0.2838129E-01  0.4232551E+06  0.1433968E+06
  0.1600000E+01  0.8925973E+05  0.4007675E+05 -0.1073778E-02  0.9896815E-02  0.4186984E+06  0.1910643E+06
  0.1700000E+01  0.8712541E+05  0.5066727E+05 -0.1183538E-01 -0.8011460E-02  0.4088128E+06  0.2420747E+06
  0.1800000E+01  0.8399436E+05  0.6120511E+05 -0.3333092E-02 -0.3991497E-01  0.3941211E+06  0.2930538E+06
  0.1900000E+01  0.8012021E+05  0.7105091E+05  0.4603487E-02  0.1814270E-01  0.3758087E+06  0.3409305E+06
  0.2000000E+01  0.7581946E+05  0.7972637E+05 -0.1278365E-01 -0.1408338E-01  0.3553624E+06  0.3833779E+06
  0.2100000E+01  0.7137841E+05  0.8696795E+05 -0.1059714E-02 -0.2275455E-01  0.3341538E+06  0.4190848E+06
  0.2200000E+01  0.6701426E+05  0.9272716E+05 -0.8279518E-02 -0.9457707E-02  0.3132252E+06  0.4477721E+06
  0.2300000E+01  0.6290466E+05  0.9704596E+05  0.2843401E-02  0.3423679E-01  0.2934344E+06  0.4695847E+06
  0.2400000E+01  0.5913299E+05  0.1000723E+06  0.9631515E-02 -0.6388426E-02  0.2752012E+06  0.4851959E+06
  0.2500000E+01  0.5573785E+05  0.1020051E+06 -0.1496229E-01 -0.1288784E-01  0.2587235E+06  0.4955273E+06
  0.2600000E+01  0.5273192E+05  0.1029841E+06 -0.5978529E-02 -0.1806211E-01  0.2440800E+06  0.5012299E+06
  0.2700000E+01  0.5009489E+05  0.1031938E+06 -0.1720358E-01 -0.1541734E-01  0.2311773E+06  0.5031690E+06
  0.2800000E+01  0.4780841E+05  0.1027719E+06 -0.3401296E-02 -0.7779717E-02  0.2199410E+06  0.5019977E+06
  0.2900000E+01  0.4582721E+05  0.1018495E+06  0.8078032E-02 -0.3619790E-02  0.2101722E+06  0.4983477E+06
  0.3000000E+01  0.4412363E+05  0.1004773E+06 -0.1555212E-01 -0.3454804E-01  0.2017381E+06  0.4924511E+06
  0.3100000E+01  0.4265624E+05  0.9870923E+05 -0.2411950E-02  0.2197027E-03  0.1944392E+06  0.4845479E+06
  0.3200000E+01  0.4140115E+05  0.9654497E+05 -0.4023314E-04 -0.5288064E-02  0.1881864E+06  0.4746579E+06
