VARIABLES="w (rad/s)"
"abs(F   1   1)" "angle(F   1   1)"
"abs(F   1   2)" "angle(F   1   2)"
"abs(F   1   3)" "angle(F   1   3)"
Zone t="FKforce - beta =   0.000",I=    32,F=POINT
  0.1000000E+00  0.1914856E+04 -0.1570799E+01  0.2820099E+06  0.5984033E-10  0.1928761E+04 -0.1570800E+01
  0.2000000E+00  0.7604940E+04 -0.1570795E+01  0.2763139E+06 -0.1076006E-09  0.7648163E+04 -0.1570798E+01
  0.3000000E+00  0.1690836E+05 -0.1570796E+01  0.2669888E+06  0.4634902E-09  0.1695957E+05 -0.1570796E+01
  0.4000000E+00  0.2956011E+05 -0.1570796E+01  0.2542789E+06  0.6204742E-09  0.2953875E+05 -0.1570796E+01
  0.5000000E+00  0.4519919E+05 -0.1570796E+01  0.2385172E+06  0.5352786E-09  0.4494635E+05 -0.1570796E+01
  0.6000001E+00  0.6337864E+05 -0.1570796E+01  0.2201150E+06  0.1086946E-08  0.6264173E+05 -0.1570796E+01
  0.7000000E+00  0.8357717E+05 -0.1570796E+01  0.1995510E+06 -0.2277391E-08  0.8200072E+05 -0.1570796E+01
  0.8000001E+00  0.1052136E+06 -0.1570796E+01  0.1773535E+06 -0.2350699E-08  0.1023377E+06 -0.1570796E+01
  0.9000000E+00  0.1276621E+06 -0.1570796E+01  0.1540912E+06  0.3772405E-08  0.1229276E+06 -0.1570796E+01
  0.1000000E+01  0.1502703E+06 -0.1570796E+01  0.1303499E+06 -0.7361532E-08  0.1430337E+06 -0.1570796E+01
  0.1100000E+01  0.1723770E+06 -0.1570796E+01  0.1067204E+06  0.7981416E-08  0.1619342E+06 -0.1570796E+01
  0.1200000E+01  0.1933285E+06 -0.1570796E+01  0.8377765E+05 -0.9719643E-08  0.1789492E+06 -0.1570796E+01
  0.1300000E+01  0.2125001E+06 -0.1570796E+01  0.6206399E+05 -0.9926426E-08  0.1934683E+06 -0.1570796E+01
  0.1400000E+01  0.2293119E+06 -0.1570796E+01  0.4207264E+05 -0.2431142E-07  0.2049753E+06 -0.1570796E+01
  0.1500000E+01  0.2432479E+06 -0.1570796E+01  0.2423270E+05 -0.3875347E-07  0.2130674E+06 -0.1570796E+01
  0.1600000E+01  0.2538697E+06 -0.1570796E+01  0.8894180E+04  0.2086187E-07  0.2174753E+06 -0.1570796E+01
  0.1700000E+01  0.2608304E+06 -0.1570796E+01  0.3683076E+04  0.3141592E+01  0.2180702E+06 -0.1570796E+01
  0.1800000E+01  0.2638886E+06 -0.1570796E+01  0.1333823E+05 -0.3141593E+01  0.2148721E+06 -0.1570796E+01
  0.1900000E+01  0.2629149E+06 -0.1570796E+01  0.2001491E+05 -0.3141593E+01  0.2080446E+06 -0.1570796E+01
  0.2000000E+01  0.2578984E+06 -0.1570796E+01  0.2376357E+05 -0.3141593E+01  0.1978874E+06 -0.1570796E+01
  0.2100000E+01  0.2489478E+06 -0.1570796E+01  0.2473944E+05  0.3141593E+01  0.1848185E+06 -0.1570796E+01
  0.2200000E+01  0.2362905E+06 -0.1570796E+01  0.2319633E+05  0.3141593E+01  0.1693532E+06 -0.1570796E+01
  0.2300000E+01  0.2202652E+06 -0.1570796E+01  0.1947630E+05 -0.3141593E+01  0.1520759E+06 -0.1570796E+01
  0.2400000E+01  0.2013134E+06 -0.1570796E+01  0.1399518E+05 -0.3141593E+01  0.1336120E+06 -0.1570796E+01
  0.2500000E+01  0.1799647E+06 -0.1570796E+01  0.7225268E+04  0.3141593E+01  0.1145917E+06 -0.1570796E+01
  0.2600000E+01  0.1568171E+06 -0.1570796E+01  0.3265118E+03 -0.2442515E-06  0.9562284E+05 -0.1570796E+01
  0.2700000E+01  0.1325218E+06 -0.1570796E+01  0.8141679E+04  0.1124211E-06  0.7726106E+05 -0.1570796E+01
  0.2800000E+01  0.1077556E+06 -0.1570796E+01  0.1571428E+05  0.1449750E-06  0.5998507E+05 -0.1570796E+01
  0.2900000E+01  0.8319848E+05 -0.1570796E+01  0.2257584E+05  0.4707057E-08  0.4417914E+05 -0.1570796E+01
  0.3000000E+01  0.5950956E+05 -0.1570796E+01  0.2831787E+05 -0.9902033E-08  0.3012268E+05 -0.1570796E+01
  0.3100000E+01  0.3730285E+05 -0.1570796E+01  0.3261295E+05  0.9022189E-08  0.1798655E+05 -0.1570796E+01
  0.3200000E+01  0.1712498E+05 -0.1570796E+01  0.3523049E+05 -0.2943843E-08  0.7838068E+04 -0.1570796E+01
