VARIABLES="w (rad/s)"
"abs(F   1   1)" "angle(F   1   1)"
"abs(F   1   2)" "angle(F   1   2)"
"abs(F   1   3)" "angle(F   1   3)"
Zone t="Diffraction force - beta =   0.000 deg",I=   100,F=POINT
  0.1000000E+00  0.9951551E-01 -0.1570797E+01  0.9951874E-01 -0.3141591E+01  0.2847081E+00 -0.1570797E+01
  0.3010101E+00  0.9012908E+00 -0.1570796E+01  0.9015515E+00 -0.3141580E+01  0.2578546E+01 -0.1570797E+01
  0.5020202E+00  0.2508819E+01 -0.1570796E+01  0.2520964E+01 -0.3141567E+01  0.7177600E+01 -0.1570796E+01
  0.7030303E+00  0.4954061E+01 -0.1570795E+01  0.4913563E+01 -0.3141561E+01  0.1417327E+02 -0.1570795E+01
  0.9040404E+00  0.8207449E+01 -0.1570788E+01  0.8120673E+01 -0.3141572E+01  0.2348103E+02 -0.1570788E+01
  0.1105051E+01  0.1226525E+02 -0.1570769E+01  0.1213316E+02  0.3141576E+01  0.3509016E+02 -0.1570769E+01
  0.1306061E+01  0.1714077E+02 -0.1570722E+01  0.1695023E+02  0.3141513E+01  0.4903871E+02 -0.1570722E+01
  0.1507071E+01  0.2282874E+02 -0.1570624E+01  0.2255701E+02  0.3141440E+01  0.6531158E+02 -0.1570624E+01
  0.1708081E+01  0.2934132E+02 -0.1570437E+01  0.2899772E+02  0.3141396E+01  0.8394344E+02 -0.1570437E+01
  0.1909091E+01  0.3670263E+02 -0.1570109E+01  0.3623958E+02  0.3141446E+01  0.1050035E+03 -0.1570109E+01
  0.2110101E+01  0.4491634E+02 -0.1569570E+01  0.4437522E+02 -0.3141492E+01  0.1285022E+03 -0.1569570E+01
  0.2311111E+01  0.5401504E+02 -0.1568731E+01  0.5335206E+02 -0.3140907E+01  0.1545323E+03 -0.1568731E+01
  0.2512121E+01  0.6407308E+02 -0.1567477E+01  0.6327263E+02 -0.3139798E+01  0.1833071E+03 -0.1567477E+01
  0.2713131E+01  0.7506386E+02 -0.1565672E+01  0.7421019E+02 -0.3137927E+01  0.2147505E+03 -0.1565672E+01
  0.2914141E+01  0.8712100E+02 -0.1563156E+01  0.8613489E+02 -0.3135012E+01  0.2492439E+03 -0.1563156E+01
  0.3115151E+01  0.1003510E+03 -0.1559743E+01  0.9927110E+02 -0.3130719E+01  0.2870930E+03 -0.1559743E+01
  0.3316161E+01  0.1147883E+03 -0.1555217E+01  0.1136630E+03 -0.3124646E+01  0.3283951E+03 -0.1555217E+01
  0.3517171E+01  0.1305614E+03 -0.1549337E+01  0.1294610E+03 -0.3116363E+01  0.3735202E+03 -0.1549336E+01
  0.3718182E+01  0.1479844E+03 -0.1541835E+01  0.1467840E+03 -0.3105377E+01  0.4233622E+03 -0.1541834E+01
  0.3919192E+01  0.1671364E+03 -0.1532402E+01  0.1656314E+03 -0.3091187E+01  0.4781512E+03 -0.1532401E+01
  0.4120202E+01  0.1882508E+03 -0.1520692E+01  0.1864526E+03 -0.3073152E+01  0.5385539E+03 -0.1520690E+01
  0.4321212E+01  0.2116911E+03 -0.1506307E+01  0.2093937E+03 -0.3050546E+01  0.6056114E+03 -0.1506305E+01
  0.4522222E+01  0.2379134E+03 -0.1488780E+01  0.2343008E+03 -0.3022836E+01  0.6806245E+03 -0.1488777E+01
  0.4723232E+01  0.2675905E+03 -0.1467543E+01  0.2615744E+03 -0.2989245E+01  0.7655216E+03 -0.1467539E+01
  0.4924242E+01  0.3013628E+03 -0.1441893E+01  0.2913967E+03 -0.2948842E+01  0.8621316E+03 -0.1441888E+01
  0.5125252E+01  0.3400084E+03 -0.1410958E+01  0.3234183E+03 -0.2900883E+01  0.9726848E+03 -0.1410952E+01
  0.5326262E+01  0.3847636E+03 -0.1373569E+01  0.3578925E+03 -0.2844345E+01  0.1100714E+04 -0.1373562E+01
  0.5527273E+01  0.4373100E+03 -0.1328130E+01  0.3948057E+03 -0.2778190E+01  0.1251029E+04 -0.1328121E+01
  0.5728283E+01  0.5009204E+03 -0.1272149E+01  0.4327191E+03 -0.2702159E+01  0.1432991E+04 -0.1272137E+01
  0.5929293E+01  0.5784050E+03 -0.1202300E+01  0.4701223E+03 -0.2616250E+01  0.1654640E+04 -0.1202285E+01
  0.6130303E+01  0.6744839E+03 -0.1113305E+01  0.5064910E+03 -0.2519931E+01  0.1929478E+04 -0.1113288E+01
  0.6331313E+01  0.7944346E+03 -0.9973201E+00  0.5396006E+03 -0.2413961E+01  0.2272604E+04 -0.9972989E+00
  0.6532323E+01  0.9427480E+03 -0.8424364E+00  0.5676313E+03 -0.2299188E+01  0.2696852E+04 -0.8424115E+00
  0.6733334E+01  0.1114343E+04 -0.6334098E+00  0.5876916E+03 -0.2178369E+01  0.3187696E+04 -0.6333823E+00
  0.6934343E+01  0.1274901E+04 -0.3592438E+00  0.5992571E+03 -0.2053897E+01  0.3646968E+04 -0.3592097E+00
  0.7135354E+01  0.1357818E+04 -0.2394030E-01  0.6008946E+03 -0.1930619E+01  0.3884117E+04 -0.2390163E-01
  0.7336363E+01  0.1302245E+04  0.3248911E+00  0.5939601E+03 -0.1810197E+01  0.3725106E+04  0.3249366E+00
  0.7537374E+01  0.1145121E+04  0.6254933E+00  0.5795518E+03 -0.1695217E+01  0.3275620E+04  0.6255450E+00
  0.7738384E+01  0.9679866E+03  0.8586357E+00  0.5596231E+03 -0.1586187E+01  0.2768904E+04  0.8586949E+00
  0.7939394E+01  0.8149458E+03  0.1032296E+01  0.5358632E+03 -0.1484888E+01  0.2331106E+04  0.1032365E+01
  0.8140405E+01  0.6923674E+03  0.1165518E+01  0.5104831E+03 -0.1390001E+01  0.1980456E+04  0.1165597E+01
  0.8341414E+01  0.5959476E+03  0.1271987E+01  0.4842293E+03 -0.1301790E+01  0.1704638E+04  0.1272076E+01
  0.8542424E+01  0.5193566E+03  0.1361035E+01  0.4581687E+03 -0.1217853E+01  0.1485547E+04  0.1361135E+01
  0.8743435E+01  0.4585421E+03  0.1437025E+01  0.4325297E+03 -0.1138961E+01  0.1311584E+04  0.1437137E+01
  0.8944445E+01  0.4084183E+03  0.1505738E+01  0.4074872E+03 -0.1065885E+01  0.1168202E+04  0.1505864E+01
  0.9145455E+01  0.3671645E+03  0.1567756E+01  0.3836239E+03 -0.9974113E+00  0.1050193E+04  0.1567895E+01
  0.9346465E+01  0.3329581E+03  0.1624223E+01  0.3611755E+03 -0.9326642E+00  0.9523481E+03  0.1624377E+01
  0.9547475E+01  0.3042344E+03  0.1676683E+01  0.3400728E+03 -0.8708131E+00  0.8701854E+03  0.1676852E+01
  0.9748485E+01  0.2796804E+03  0.1726013E+01  0.3202945E+03 -0.8108088E+00  0.7999495E+03  0.1726197E+01
  0.9949495E+01  0.2589390E+03  0.1771295E+01  0.3017801E+03 -0.7527167E+00  0.7406216E+03  0.1771494E+01
  0.1015051E+02  0.2409394E+03  0.1814362E+01  0.2843699E+03 -0.6962494E+00  0.6891359E+03  0.1814577E+01
  0.1035151E+02  0.2255939E+03  0.1854980E+01  0.2679425E+03 -0.6423416E+00  0.6452433E+03  0.1855212E+01
  0.1055252E+02  0.2123992E+03  0.1893033E+01  0.2525413E+03 -0.5905734E+00  0.6075037E+03  0.1893279E+01
  0.1075354E+02  0.2007728E+03  0.1928746E+01  0.2381622E+03 -0.5397556E+00  0.5742487E+03  0.1929007E+01
  0.1095455E+02  0.1907036E+03  0.1962010E+01  0.2246699E+03 -0.4906270E+00  0.5454499E+03  0.1962284E+01
  0.1115556E+02  0.1817837E+03  0.1993125E+01  0.2120301E+03 -0.4422606E+00  0.5199372E+03  0.1993414E+01
  0.1135657E+02  0.1737470E+03  0.2022358E+01  0.2000471E+03 -0.3952120E+00  0.4969523E+03  0.2022660E+01
  0.1155758E+02  0.1663644E+03  0.2050239E+01  0.1887037E+03 -0.3487964E+00  0.4758362E+03  0.2050555E+01
  0.1175859E+02  0.1596954E+03  0.2076245E+01  0.1779819E+03 -0.3037998E+00  0.4567631E+03  0.2076573E+01
  0.1195960E+02  0.1538774E+03  0.2100205E+01  0.1678246E+03 -0.2605205E+00  0.4401250E+03  0.2100544E+01
  0.1216061E+02  0.1484893E+03  0.2122077E+01  0.1582425E+03 -0.2183461E+00  0.4247152E+03  0.2122427E+01
  0.1236162E+02  0.1435770E+03  0.2142061E+01  0.1490686E+03 -0.1775840E+00  0.4106655E+03  0.2142422E+01
  0.1256263E+02  0.1389407E+03  0.2161068E+01  0.1402395E+03 -0.1385109E+00  0.3974065E+03  0.2161438E+01
  0.1276364E+02  0.1345297E+03  0.2179115E+01  0.1317457E+03 -0.1003403E+00  0.3847917E+03  0.2179495E+01
  0.1296465E+02  0.1302914E+03  0.2195661E+01  0.1235790E+03 -0.6311541E-01  0.3726699E+03  0.2196052E+01
  0.1316566E+02  0.1262814E+03  0.2210445E+01  0.1157330E+03 -0.2704158E-01  0.3612011E+03  0.2210847E+01
  0.1336667E+02  0.1223208E+03  0.2224494E+01  0.1081181E+03  0.8483406E-02  0.3498741E+03  0.2224906E+01
  0.1356768E+02  0.1183244E+03  0.2237950E+01  0.1008056E+03  0.4335239E-01  0.3384450E+03  0.2238370E+01
  0.1376869E+02  0.1146167E+03  0.2250608E+01  0.9374306E+02  0.7656915E-01  0.3278412E+03  0.2251037E+01
  0.1396970E+02  0.1109558E+03  0.2262369E+01  0.8693056E+02  0.1089767E+00  0.3173711E+03  0.2262810E+01
  0.1417071E+02  0.1073767E+03  0.2272181E+01  0.8028919E+02  0.1405576E+00  0.3071345E+03  0.2272632E+01
  0.1437172E+02  0.1037653E+03  0.2281861E+01  0.7378888E+02  0.1711536E+00  0.2968056E+03  0.2282322E+01
  0.1457273E+02  0.1001254E+03  0.2291096E+01  0.6744853E+02  0.2020770E+00  0.2863953E+03  0.2291568E+01
  0.1477374E+02  0.9652301E+02  0.2299917E+01  0.6125179E+02  0.2329583E+00  0.2760915E+03  0.2300398E+01
  0.1497475E+02  0.9295536E+02  0.2307887E+01  0.5519596E+02  0.2643369E+00  0.2658878E+03  0.2308379E+01
  0.1517576E+02  0.8936003E+02  0.2315182E+01  0.4926868E+02  0.2961577E+00  0.2556043E+03  0.2315689E+01
  0.1537677E+02  0.8573875E+02  0.2322351E+01  0.4347209E+02  0.3303493E+00  0.2452464E+03  0.2322868E+01
  0.1557778E+02  0.8216052E+02  0.2328989E+01  0.3781708E+02  0.3669763E+00  0.2350119E+03  0.2329520E+01
  0.1577879E+02  0.7866132E+02  0.2335793E+01  0.3232012E+02  0.4090783E+00  0.2250040E+03  0.2336337E+01
  0.1597980E+02  0.7515688E+02  0.2342936E+01  0.2700950E+02  0.4596672E+00  0.2149804E+03  0.2343495E+01
  0.1618081E+02  0.7162829E+02  0.2349333E+01  0.2182557E+02  0.5258512E+00  0.2048875E+03  0.2349909E+01
  0.1638182E+02  0.6823425E+02  0.2354411E+01  0.1672765E+02  0.6193408E+00  0.1951799E+03  0.2355003E+01
  0.1658283E+02  0.6485712E+02  0.2359960E+01  0.1185630E+02  0.7845860E+00  0.1855201E+03  0.2360567E+01
  0.1678384E+02  0.6147834E+02  0.2365936E+01  0.7601470E+01  0.1142980E+01  0.1758564E+03  0.2366559E+01
  0.1698485E+02  0.5809731E+02  0.2372278E+01  0.5754522E+01  0.1969298E+01  0.1661858E+03  0.2372921E+01
  0.1718586E+02  0.5479000E+02  0.2380072E+01  0.8792221E+01  0.2723222E+01  0.1567262E+03  0.2380736E+01
  0.1738687E+02  0.5159981E+02  0.2385613E+01  0.1485278E+02  0.3030364E+01  0.1476015E+03  0.2386296E+01
  0.1758788E+02  0.4840630E+02  0.2392559E+01  0.2387075E+02 -0.3132826E+01  0.1384676E+03  0.2393264E+01
  0.1778889E+02  0.4529041E+02  0.2400126E+01  0.3968525E+02  0.3132587E+01  0.1295551E+03  0.2400856E+01
  0.1798990E+02  0.4228118E+02  0.2409197E+01  0.7508585E+02  0.2713205E+01  0.1209484E+03  0.2409951E+01
  0.1819091E+02  0.3933718E+02  0.2419973E+01  0.5655210E+02  0.1677177E+01  0.1125282E+03  0.2420755E+01
  0.1839192E+02  0.3644613E+02  0.2433097E+01  0.2494762E+02  0.1605234E+01  0.1042597E+03  0.2433909E+01
  0.1859293E+02  0.3361716E+02  0.2445367E+01  0.1541536E+02  0.2022935E+01  0.9616888E+02  0.2446210E+01
  0.1879394E+02  0.3100812E+02  0.2459968E+01  0.1445322E+02  0.2509563E+01  0.8870688E+02  0.2460839E+01
  0.1899495E+02  0.2842809E+02  0.2475909E+01  0.1649061E+02  0.2815768E+01  0.8132811E+02  0.2476812E+01
  0.1919596E+02  0.2591556E+02  0.2494369E+01  0.1910929E+02  0.2985932E+01  0.7414252E+02  0.2495307E+01
  0.1939697E+02  0.2350526E+02  0.2518037E+01  0.2169197E+02  0.3087463E+01  0.6724930E+02  0.2519010E+01
  0.1959798E+02  0.2118524E+02  0.2546705E+01  0.2399122E+02 -0.3131480E+01  0.6061483E+02  0.2547716E+01
  0.1979899E+02  0.1896647E+02  0.2582678E+01  0.2607025E+02 -0.3087606E+01  0.5426988E+02  0.2583725E+01
  0.2000000E+02  0.1693446E+02  0.2622624E+01  0.2790478E+02 -0.3055446E+01  0.4845934E+02  0.2623708E+01
