VARIABLES="w (rad/s)"
"abs(F   1   1)" "angle(F   1   1)"
"abs(F   1   2)" "angle(F   1   2)"
"abs(F   1   3)" "angle(F   1   3)"
Zone t="Diffraction force - beta =   0.000 deg",I=   100,F=POINT
  0.1000000E+00  0.2433018E+00 -0.1570785E+01  0.9857537E+02 -0.1600813E-08  0.6960938E+00 -0.1570732E+01
  0.3010101E+00  0.2202608E+01 -0.1570798E+01  0.9661666E+02 -0.1171971E-06  0.6301726E+01 -0.1570797E+01
  0.5020202E+00  0.6120145E+01 -0.1570797E+01  0.9268774E+02 -0.6982782E-06  0.1750991E+02 -0.1570797E+01
  0.7030303E+00  0.1201200E+02 -0.1570796E+01  0.8684799E+02 -0.1789796E-05  0.3436663E+02 -0.1570796E+01
  0.9040404E+00  0.1982491E+02 -0.1570793E+01  0.7908059E+02 -0.2122213E-05  0.5671958E+02 -0.1570793E+01
  0.1105051E+01  0.2952391E+02 -0.1570785E+01  0.6942728E+02  0.2899652E-05  0.8446870E+02 -0.1570785E+01
  0.1306061E+01  0.4108376E+02 -0.1570765E+01  0.5792466E+02  0.2327583E-04  0.1175416E+03 -0.1570766E+01
  0.1507071E+01  0.5445362E+02 -0.1570724E+01  0.4463507E+02  0.7718369E-04  0.1557930E+03 -0.1570724E+01
  0.1708081E+01  0.6959348E+02 -0.1570645E+01  0.2956695E+02  0.1928198E-03  0.1991080E+03 -0.1570645E+01
  0.1909091E+01  0.8646915E+02 -0.1570504E+01  0.1280836E+02  0.4146121E-03  0.2473894E+03 -0.1570504E+01
  0.2110101E+01  0.1050202E+03 -0.1570272E+01  0.5667124E+01 -0.3140804E+01  0.3004642E+03 -0.1570272E+01
  0.2311111E+01  0.1252102E+03 -0.1569905E+01  0.2573787E+02 -0.3140172E+01  0.3582269E+03 -0.1569905E+01
  0.2512121E+01  0.1470397E+03 -0.1569350E+01  0.4743501E+02 -0.3139199E+01  0.4206809E+03 -0.1569350E+01
  0.2713131E+01  0.1704042E+03 -0.1568539E+01  0.7075175E+02 -0.3137748E+01  0.4875258E+03 -0.1568539E+01
  0.2914141E+01  0.1953560E+03 -0.1567389E+01  0.9557858E+02 -0.3135662E+01  0.5589113E+03 -0.1567389E+01
  0.3115151E+01  0.2219175E+03 -0.1565798E+01  0.1220562E+03 -0.3132749E+01  0.6349030E+03 -0.1565798E+01
  0.3316161E+01  0.2500363E+03 -0.1563644E+01  0.1501406E+03 -0.3128764E+01  0.7153477E+03 -0.1563644E+01
  0.3517171E+01  0.2797509E+03 -0.1560782E+01  0.1798934E+03 -0.3123437E+01  0.8003617E+03 -0.1560781E+01
  0.3718182E+01  0.3112849E+03 -0.1557029E+01  0.2113392E+03 -0.3116442E+01  0.8905740E+03 -0.1557029E+01
  0.3919192E+01  0.3446231E+03 -0.1552179E+01  0.2443820E+03 -0.3107438E+01  0.9859498E+03 -0.1552179E+01
  0.4120202E+01  0.3799006E+03 -0.1545976E+01  0.2793634E+03 -0.3095934E+01  0.1086874E+04 -0.1545976E+01
  0.4321212E+01  0.4173791E+03 -0.1538105E+01  0.3163146E+03 -0.3081368E+01  0.1194093E+04 -0.1538105E+01
  0.4522222E+01  0.4574013E+03 -0.1528171E+01  0.3549459E+03 -0.3063305E+01  0.1308589E+04 -0.1528171E+01
  0.4723232E+01  0.5005165E+03 -0.1515664E+01  0.3954989E+03 -0.3041053E+01  0.1431932E+04 -0.1515664E+01
  0.4924242E+01  0.5472173E+03 -0.1499944E+01  0.4379541E+03 -0.3013789E+01  0.1565529E+04 -0.1499944E+01
  0.5125252E+01  0.5980973E+03 -0.1480193E+01  0.4817119E+03 -0.2980847E+01  0.1711086E+04 -0.1480193E+01
  0.5326262E+01  0.6541484E+03 -0.1455283E+01  0.5266989E+03 -0.2941236E+01  0.1871432E+04 -0.1455283E+01
  0.5527273E+01  0.7167023E+03 -0.1423647E+01  0.5724778E+03 -0.2893930E+01  0.2050376E+04 -0.1423647E+01
  0.5728283E+01  0.7884782E+03 -0.1382767E+01  0.6171205E+03 -0.2838676E+01  0.2255697E+04 -0.1382767E+01
  0.5929293E+01  0.8713994E+03 -0.1329360E+01  0.6585688E+03 -0.2775463E+01  0.2492900E+04 -0.1329360E+01
  0.6130303E+01  0.9686296E+03 -0.1258161E+01  0.6956321E+03 -0.2703695E+01  0.2771031E+04 -0.1258161E+01
  0.6331313E+01  0.1082646E+04 -0.1161328E+01  0.7255182E+03 -0.2624141E+01  0.3097175E+04 -0.1161327E+01
  0.6532323E+01  0.1212783E+04 -0.1026945E+01  0.7459244E+03 -0.2537669E+01  0.3469415E+04 -0.1026944E+01
  0.6733334E+01  0.1345236E+04 -0.8397194E+00  0.7539626E+03 -0.2447129E+01  0.3848271E+04 -0.8397200E+00
  0.6934343E+01  0.1435094E+04 -0.5886999E+00  0.7493666E+03 -0.2354693E+01  0.4105264E+04 -0.5886987E+00
  0.7135354E+01  0.1411536E+04 -0.2777759E+00  0.7318533E+03 -0.2265134E+01  0.4037786E+04 -0.2777760E+00
  0.7336363E+01  0.1235394E+04  0.4543878E-01  0.7036331E+03 -0.2180079E+01  0.3533823E+04  0.4543933E-01
  0.7537374E+01  0.9777028E+03  0.3191852E+00  0.6670388E+03 -0.2102141E+01  0.2796615E+04  0.3191847E+00
  0.7738384E+01  0.7307329E+03  0.5243707E+00  0.6248120E+03 -0.2031904E+01  0.2090102E+04  0.5243703E+00
  0.7939394E+01  0.5328044E+03  0.6690301E+00  0.5796924E+03 -0.1970996E+01  0.1523882E+04  0.6690310E+00
  0.8140405E+01  0.3809645E+03  0.7719421E+00  0.5339855E+03 -0.1917774E+01  0.1089515E+04  0.7719420E+00
  0.8341414E+01  0.2649059E+03  0.8469650E+00  0.4889210E+03 -0.1872658E+01  0.7575126E+03  0.8469643E+00
  0.8542424E+01  0.1747624E+03  0.9035751E+00  0.4451704E+03 -0.1833244E+01  0.4996489E+03  0.9035759E+00
  0.8743435E+01  0.1046884E+03  0.9469239E+00  0.4034121E+03 -0.1800424E+01  0.2991969E+03  0.9469293E+00
  0.8944445E+01  0.4810206E+02  0.9860344E+00  0.3642187E+03 -0.1775156E+01  0.1373242E+03  0.9860517E+00
  0.9145455E+01  0.2778518E+01  0.1157321E+01  0.3278668E+03 -0.1755819E+01  0.7677275E+01  0.1162644E+01
  0.9346465E+01  0.3363375E+02 -0.2127798E+01  0.2943643E+03 -0.1741225E+01  0.9648307E+02 -0.2127769E+01
  0.9547475E+01  0.6301372E+02 -0.2106296E+01  0.2634657E+03 -0.1730675E+01  0.1805231E+03 -0.2106291E+01
  0.9748485E+01  0.8692536E+02 -0.2091398E+01  0.2348837E+03 -0.1723125E+01  0.2489232E+03 -0.2091387E+01
  0.9949495E+01  0.1057618E+03 -0.2080137E+01  0.2085747E+03 -0.1718489E+01  0.3028026E+03 -0.2080129E+01
  0.1015051E+02  0.1209010E+03 -0.2072144E+01  0.1843410E+03 -0.1716827E+01  0.3461014E+03 -0.2072143E+01
  0.1035151E+02  0.1325692E+03 -0.2068164E+01  0.1623001E+03 -0.1719176E+01  0.3794787E+03 -0.2068159E+01
  0.1055252E+02  0.1413157E+03 -0.2066882E+01  0.1423044E+03 -0.1724609E+01  0.4044893E+03 -0.2066881E+01
  0.1075354E+02  0.1477476E+03 -0.2067003E+01  0.1239974E+03 -0.1731599E+01  0.4228847E+03 -0.2066998E+01
  0.1095455E+02  0.1520133E+03 -0.2069583E+01  0.1074098E+03 -0.1740896E+01  0.4350785E+03 -0.2069582E+01
  0.1115556E+02  0.1545636E+03 -0.2073812E+01  0.9224436E+02 -0.1751322E+01  0.4423688E+03 -0.2073809E+01
  0.1135657E+02  0.1557195E+03 -0.2079321E+01  0.7848626E+02 -0.1764472E+01  0.4456702E+03 -0.2079317E+01
  0.1155758E+02  0.1557943E+03 -0.2085849E+01  0.6592719E+02 -0.1779781E+01  0.4458739E+03 -0.2085850E+01
  0.1175859E+02  0.1547725E+03 -0.2093934E+01  0.5463699E+02 -0.1797170E+01  0.4429460E+03 -0.2093932E+01
  0.1195960E+02  0.1526676E+03 -0.2104847E+01  0.4456857E+02 -0.1816612E+01  0.4369174E+03 -0.2104848E+01
  0.1216061E+02  0.1497843E+03 -0.2116769E+01  0.3552052E+02 -0.1836097E+01  0.4286620E+03 -0.2116771E+01
  0.1236162E+02  0.1462087E+03 -0.2130533E+01  0.2746115E+02 -0.1858398E+01  0.4184295E+03 -0.2130531E+01
  0.1256263E+02  0.1422219E+03 -0.2145689E+01  0.2035998E+02 -0.1885098E+01  0.4070168E+03 -0.2145689E+01
  0.1276364E+02  0.1379028E+03 -0.2162179E+01  0.1403827E+02 -0.1918710E+01  0.3946543E+03 -0.2162180E+01
  0.1296465E+02  0.1332576E+03 -0.2179696E+01  0.8445771E+01 -0.1966072E+01  0.3813621E+03 -0.2179694E+01
  0.1316566E+02  0.1282908E+03 -0.2198841E+01  0.3552928E+01 -0.2064183E+01  0.3671482E+03 -0.2198838E+01
  0.1336667E+02  0.1232304E+03 -0.2218851E+01  0.9297907E+00  0.1735328E+01  0.3526675E+03 -0.2218847E+01
  0.1356768E+02  0.1181460E+03 -0.2239140E+01  0.4592496E+01  0.1257371E+01  0.3381163E+03 -0.2239136E+01
  0.1376869E+02  0.1129704E+03 -0.2262444E+01  0.7766562E+01  0.1176578E+01  0.3233043E+03 -0.2262443E+01
  0.1396970E+02  0.1077867E+03 -0.2286965E+01  0.1049300E+02  0.1122166E+01  0.3084709E+03 -0.2286964E+01
  0.1417071E+02  0.1025068E+03 -0.2313024E+01  0.1276949E+02  0.1077680E+01  0.2933618E+03 -0.2313023E+01
  0.1437172E+02  0.9736900E+02 -0.2339930E+01  0.1460342E+02  0.1036444E+01  0.2786597E+03 -0.2339927E+01
  0.1457273E+02  0.9235035E+02 -0.2367624E+01  0.1610934E+02  0.9979010E+00  0.2642996E+03 -0.2367618E+01
  0.1477374E+02  0.8746346E+02 -0.2396789E+01  0.1727139E+02  0.9591730E+00  0.2503129E+03 -0.2396787E+01
  0.1497475E+02  0.8267981E+02 -0.2427473E+01  0.1812705E+02  0.9199190E+00  0.2366233E+03 -0.2427476E+01
  0.1517576E+02  0.7802814E+02 -0.2458960E+01  0.1867762E+02  0.8786039E+00  0.2233139E+03 -0.2458958E+01
  0.1537677E+02  0.7356042E+02 -0.2491144E+01  0.1898384E+02  0.8372434E+00  0.2105283E+03 -0.2491143E+01
  0.1557778E+02  0.6924936E+02 -0.2524927E+01  0.1904917E+02  0.7927577E+00  0.1981921E+03 -0.2524925E+01
  0.1577879E+02  0.6516243E+02 -0.2560745E+01  0.1892839E+02  0.7466438E+00  0.1864975E+03 -0.2560743E+01
  0.1597980E+02  0.6129449E+02 -0.2597224E+01  0.1865317E+02  0.6976228E+00  0.1754289E+03 -0.2597223E+01
  0.1618081E+02  0.5755132E+02 -0.2634179E+01  0.1816936E+02  0.6472013E+00  0.1647179E+03 -0.2634175E+01
  0.1638182E+02  0.5394056E+02 -0.2674510E+01  0.1740618E+02  0.5918164E+00  0.1543856E+03 -0.2674507E+01
  0.1658283E+02  0.5055035E+02 -0.2715631E+01  0.1640196E+02  0.5360255E+00  0.1446840E+03 -0.2715623E+01
  0.1678384E+02  0.4735280E+02 -0.2756966E+01  0.1510755E+02  0.4755293E+00  0.1355339E+03 -0.2756960E+01
  0.1698485E+02  0.4432340E+02 -0.2798244E+01  0.1339027E+02  0.4072435E+00  0.1268653E+03 -0.2798235E+01
  0.1718586E+02  0.4152952E+02 -0.2840101E+01  0.1102737E+02  0.3298742E+00  0.1188701E+03 -0.2840095E+01
  0.1738687E+02  0.3880649E+02 -0.2885815E+01  0.7520574E+01  0.2210131E+00  0.1110779E+03 -0.2885807E+01
  0.1758788E+02  0.3625577E+02 -0.2930398E+01  0.1574139E+01 -0.1333342E+00  0.1037788E+03 -0.2930390E+01
  0.1778889E+02  0.3386399E+02 -0.2975990E+01  0.1122167E+02  0.3109740E+01  0.9693439E+02 -0.2975972E+01
  0.1798990E+02  0.3166360E+02 -0.3022471E+01  0.4845551E+02  0.2442264E+01  0.9063757E+02 -0.3022456E+01
  0.1819091E+02  0.2961076E+02 -0.3068575E+01  0.6267923E+02  0.1113265E+01  0.8476307E+02 -0.3068562E+01
  0.1839192E+02  0.2768612E+02 -0.3113311E+01  0.4300286E+02  0.6184765E+00  0.7925549E+02 -0.3113297E+01
  0.1859293E+02  0.2579781E+02  0.3123060E+01  0.3405536E+02  0.4193542E+00  0.7385194E+02  0.3123075E+01
  0.1879394E+02  0.2413575E+02  0.3073218E+01  0.2914881E+02  0.2972957E+00  0.6909536E+02  0.3073232E+01
  0.1899495E+02  0.2251488E+02  0.3023677E+01  0.2590233E+02  0.2052215E+00  0.6445689E+02  0.3023694E+01
  0.1919596E+02  0.2096727E+02  0.2974262E+01  0.2350956E+02  0.1263510E+00  0.6002816E+02  0.2974278E+01
  0.1939697E+02  0.1953176E+02  0.2926513E+01  0.2156853E+02  0.5443984E-01  0.5591991E+02  0.2926527E+01
  0.1959798E+02  0.1816592E+02  0.2879565E+01  0.1999257E+02 -0.1213555E-01  0.5201136E+02  0.2879577E+01
  0.1979899E+02  0.1687017E+02  0.2834390E+01  0.1858433E+02 -0.7576883E-01  0.4830310E+02  0.2834397E+01
  0.2000000E+02  0.1569409E+02  0.2784621E+01  0.1731910E+02 -0.1390772E+00  0.4493751E+02  0.2784631E+01
