VARIABLES="w (rad/s)"
"abs(F   1   1)" "angle(F   1   1)"
"abs(F   1   2)" "angle(F   1   2)"
"abs(F   1   3)" "angle(F   1   3)"
Zone t="FKforce - beta =   0.000",I=   100,F=POINT
  0.1000000E+00  0.1437863E+00 -0.1570776E+01  0.9867489E+02 -0.4166122E-11  0.4113857E+00 -0.1570687E+01
  0.3010101E+00  0.1301317E+01 -0.1570799E+01  0.9751821E+02 -0.1008744E-09  0.3723180E+01 -0.1570797E+01
  0.5020202E+00  0.3611326E+01 -0.1570797E+01  0.9520870E+02 -0.3087414E-09  0.1033231E+02 -0.1570798E+01
  0.7030303E+00  0.7057934E+01 -0.1570797E+01  0.9176156E+02 -0.6787395E-09  0.2019336E+02 -0.1570796E+01
  0.9040404E+00  0.1161746E+02 -0.1570797E+01  0.8720126E+02 -0.1070685E-08  0.3323855E+02 -0.1570796E+01
  0.1105051E+01  0.1725866E+02 -0.1570796E+01  0.8156044E+02 -0.1450188E-08  0.4937854E+02 -0.1570796E+01
  0.1306061E+01  0.2394299E+02 -0.1570796E+01  0.7487489E+02 -0.6841111E-09  0.6850287E+02 -0.1570797E+01
  0.1507071E+01  0.3162488E+02 -0.1570796E+01  0.6719208E+02 -0.3479011E-08  0.9048141E+02 -0.1570796E+01
  0.1708081E+01  0.4025216E+02 -0.1570796E+01  0.5856467E+02 -0.1478929E-08  0.1151646E+03 -0.1570796E+01
  0.1909091E+01  0.4976653E+02 -0.1570796E+01  0.4904794E+02 -0.9304124E-09  0.1423859E+03 -0.1570796E+01
  0.2110101E+01  0.6010386E+02 -0.1570796E+01  0.3870810E+02 -0.6520301E-08  0.1719621E+03 -0.1570796E+01
  0.2311111E+01  0.7119527E+02 -0.1570796E+01  0.2761420E+02 -0.1376030E-07  0.2036948E+03 -0.1570796E+01
  0.2512121E+01  0.8296681E+02 -0.1570796E+01  0.1583766E+02  0.8232603E-09  0.2373744E+03 -0.1570796E+01
  0.2713131E+01  0.9534090E+02 -0.1570796E+01  0.3458471E+01 -0.6247468E-07  0.2727769E+03 -0.1570796E+01
  0.2914141E+01  0.1082364E+03 -0.1570796E+01  0.9443876E+01  0.3141593E+01  0.3096714E+03 -0.1570796E+01
  0.3115151E+01  0.1215699E+03 -0.1570796E+01  0.2278615E+02  0.3141593E+01  0.3478196E+03 -0.1570796E+01
  0.3316161E+01  0.1352555E+03 -0.1570796E+01  0.3648156E+02 -0.3141593E+01  0.3869741E+03 -0.1570796E+01
  0.3517171E+01  0.1492055E+03 -0.1570796E+01  0.5044394E+02 -0.3141593E+01  0.4268873E+03 -0.1570796E+01
  0.3718182E+01  0.1633331E+03 -0.1570796E+01  0.6458463E+02 -0.3141593E+01  0.4673050E+03 -0.1570796E+01
  0.3919192E+01  0.1775502E+03 -0.1570796E+01  0.7881844E+02  0.3141593E+01  0.5079802E+03 -0.1570796E+01
  0.4120202E+01  0.1917691E+03 -0.1570796E+01  0.9305614E+02 -0.3141593E+01  0.5486613E+03 -0.1570796E+01
  0.4321212E+01  0.2059050E+03 -0.1570796E+01  0.1072147E+03  0.3141593E+01  0.5891022E+03 -0.1570796E+01
  0.4522222E+01  0.2198722E+03 -0.1570796E+01  0.1212082E+03 -0.3141593E+01  0.6290641E+03 -0.1570796E+01
  0.4723232E+01  0.2335907E+03 -0.1570796E+01  0.1349570E+03 -0.3141593E+01  0.6683127E+03 -0.1570796E+01
  0.4924242E+01  0.2469818E+03 -0.1570796E+01  0.1483819E+03  0.3141593E+01  0.7066224E+03 -0.1570796E+01
  0.5125252E+01  0.2599698E+03 -0.1570796E+01  0.1614079E+03 -0.3141593E+01  0.7437823E+03 -0.1570796E+01
  0.5326262E+01  0.2724845E+03 -0.1570796E+01  0.1739650E+03 -0.3141593E+01  0.7795864E+03 -0.1570796E+01
  0.5527273E+01  0.2844598E+03 -0.1570796E+01  0.1859884E+03 -0.3141593E+01  0.8138457E+03 -0.1570796E+01
  0.5728283E+01  0.2958336E+03 -0.1570796E+01  0.1974157E+03 -0.3141593E+01  0.8463835E+03 -0.1570796E+01
  0.5929293E+01  0.3065483E+03 -0.1570796E+01  0.2081914E+03 -0.3141593E+01  0.8770398E+03 -0.1570796E+01
  0.6130303E+01  0.3165543E+03 -0.1570796E+01  0.2182631E+03  0.3141593E+01  0.9056663E+03 -0.1570796E+01
  0.6331313E+01  0.3258057E+03 -0.1570796E+01  0.2275877E+03 -0.3141593E+01  0.9321320E+03 -0.1570796E+01
  0.6532323E+01  0.3342636E+03 -0.1570796E+01  0.2361255E+03  0.3141593E+01  0.9563273E+03 -0.1570796E+01
  0.6733334E+01  0.3418931E+03 -0.1570796E+01  0.2438436E+03 -0.3141593E+01  0.9781534E+03 -0.1570796E+01
  0.6934343E+01  0.3486671E+03 -0.1570796E+01  0.2507146E+03 -0.3141593E+01  0.9975327E+03 -0.1570796E+01
  0.7135354E+01  0.3545645E+03 -0.1570796E+01  0.2567160E+03 -0.3141593E+01  0.1014404E+04 -0.1570796E+01
  0.7336363E+01  0.3595684E+03 -0.1570796E+01  0.2618347E+03 -0.3141593E+01  0.1028716E+04 -0.1570796E+01
  0.7537374E+01  0.3636689E+03 -0.1570796E+01  0.2660618E+03 -0.3141593E+01  0.1040447E+04 -0.1570796E+01
  0.7738384E+01  0.3668643E+03 -0.1570796E+01  0.2693914E+03 -0.3141593E+01  0.1049587E+04 -0.1570796E+01
  0.7939394E+01  0.3691548E+03 -0.1570796E+01  0.2718279E+03  0.3141593E+01  0.1056136E+04 -0.1570796E+01
  0.8140405E+01  0.3705471E+03 -0.1570796E+01  0.2733764E+03 -0.3141593E+01  0.1060119E+04 -0.1570796E+01
  0.8341414E+01  0.3710526E+03 -0.1570796E+01  0.2740505E+03  0.3141593E+01  0.1061562E+04 -0.1570796E+01
  0.8542424E+01  0.3706891E+03 -0.1570796E+01  0.2738686E+03 -0.3141593E+01  0.1060519E+04 -0.1570796E+01
  0.8743435E+01  0.3694780E+03 -0.1570796E+01  0.2728531E+03 -0.3141593E+01  0.1057050E+04 -0.1570796E+01
  0.8944445E+01  0.3674447E+03 -0.1570796E+01  0.2710283E+03 -0.3141593E+01  0.1051232E+04 -0.1570796E+01
  0.9145455E+01  0.3646184E+03 -0.1570796E+01  0.2684252E+03  0.3141593E+01  0.1043142E+04 -0.1570796E+01
  0.9346465E+01  0.3610328E+03 -0.1570796E+01  0.2650764E+03 -0.3141593E+01  0.1032882E+04 -0.1570796E+01
  0.9547475E+01  0.3567231E+03 -0.1570796E+01  0.2610200E+03 -0.3141593E+01  0.1020549E+04 -0.1570796E+01
  0.9748485E+01  0.3517276E+03 -0.1570796E+01  0.2562962E+03  0.3141593E+01  0.1006257E+04 -0.1570796E+01
  0.9949495E+01  0.3460888E+03 -0.1570796E+01  0.2509425E+03 -0.3141593E+01  0.9901236E+03 -0.1570796E+01
  0.1015051E+02  0.3398503E+03 -0.1570796E+01  0.2450075E+03 -0.3141593E+01  0.9722687E+03 -0.1570796E+01
  0.1035151E+02  0.3330529E+03 -0.1570796E+01  0.2385341E+03 -0.3141593E+01  0.9528238E+03 -0.1570796E+01
  0.1055252E+02  0.3257473E+03 -0.1570796E+01  0.2315682E+03 -0.3141593E+01  0.9319171E+03 -0.1570796E+01
  0.1075354E+02  0.3179757E+03 -0.1570796E+01  0.2241570E+03 -0.3141593E+01  0.9096822E+03 -0.1570796E+01
  0.1095455E+02  0.3097879E+03 -0.1570796E+01  0.2163497E+03 -0.3141593E+01  0.8862529E+03 -0.1570796E+01
  0.1115556E+02  0.3012299E+03 -0.1570796E+01  0.2081921E+03 -0.3141593E+01  0.8617667E+03 -0.1570796E+01
  0.1135657E+02  0.2923471E+03 -0.1570796E+01  0.1997325E+03 -0.3141593E+01  0.8363533E+03 -0.1570796E+01
  0.1155758E+02  0.2831898E+03 -0.1570796E+01  0.1910186E+03  0.3141593E+01  0.8101465E+03 -0.1570796E+01
  0.1175859E+02  0.2737992E+03 -0.1570796E+01  0.1820945E+03  0.3141593E+01  0.7832805E+03 -0.1570796E+01
  0.1195960E+02  0.2642215E+03 -0.1570796E+01  0.1730072E+03 -0.3141593E+01  0.7558765E+03 -0.1570796E+01
  0.1216061E+02  0.2545003E+03 -0.1570796E+01  0.1637988E+03  0.3141593E+01  0.7280615E+03 -0.1570796E+01
  0.1236162E+02  0.2446760E+03 -0.1570796E+01  0.1545137E+03 -0.3141593E+01  0.6999545E+03 -0.1570796E+01
  0.1256263E+02  0.2347903E+03 -0.1570796E+01  0.1451907E+03 -0.3141593E+01  0.6716685E+03 -0.1570796E+01
  0.1276364E+02  0.2248793E+03 -0.1570796E+01  0.1358692E+03 -0.3141593E+01  0.6433105E+03 -0.1570796E+01
  0.1296465E+02  0.2149801E+03 -0.1570796E+01  0.1265851E+03 -0.3141593E+01  0.6149891E+03 -0.1570796E+01
  0.1316566E+02  0.2051263E+03 -0.1570796E+01  0.1173734E+03 -0.3141593E+01  0.5867958E+03 -0.1570796E+01
  0.1336667E+02  0.1953498E+03 -0.1570796E+01  0.1082665E+03 -0.3141593E+01  0.5588251E+03 -0.1570796E+01
  0.1356768E+02  0.1856808E+03 -0.1570796E+01  0.9929494E+02  0.3141593E+01  0.5311609E+03 -0.1570796E+01
  0.1376869E+02  0.1761458E+03 -0.1570796E+01  0.9048536E+02 -0.3141593E+01  0.5038788E+03 -0.1570796E+01
  0.1396970E+02  0.1667694E+03 -0.1570796E+01  0.8186373E+02  0.3141593E+01  0.4770518E+03 -0.1570796E+01
  0.1417071E+02  0.1575743E+03 -0.1570796E+01  0.7345265E+02 -0.3141593E+01  0.4507433E+03 -0.1570796E+01
  0.1437172E+02  0.1485805E+03 -0.1570796E+01  0.6527346E+02 -0.3141593E+01  0.4250119E+03 -0.1570796E+01
  0.1457273E+02  0.1398060E+03 -0.1570796E+01  0.5734373E+02 -0.3141593E+01  0.3999088E+03 -0.1570796E+01
  0.1477374E+02  0.1312682E+03 -0.1570796E+01  0.4968005E+02  0.3141593E+01  0.3754789E+03 -0.1570796E+01
  0.1497475E+02  0.1229780E+03 -0.1570796E+01  0.4229588E+02 -0.3141593E+01  0.3517591E+03 -0.1570796E+01
  0.1517576E+02  0.1149478E+03 -0.1570796E+01  0.3520321E+02 -0.3141593E+01  0.3287855E+03 -0.1570796E+01
  0.1537677E+02  0.1071872E+03 -0.1570796E+01  0.2841159E+02 -0.3141593E+01  0.3065816E+03 -0.1570796E+01
  0.1557778E+02  0.9970329E+02 -0.1570796E+01  0.2192879E+02  0.3141593E+01  0.2851701E+03 -0.1570796E+01
  0.1577879E+02  0.9250182E+02 -0.1570796E+01  0.1576040E+02  0.3141593E+01  0.2645672E+03 -0.1570796E+01
  0.1597980E+02  0.8558691E+02 -0.1570796E+01  0.9910661E+01 -0.3141592E+01  0.2447832E+03 -0.1570796E+01
  0.1618081E+02  0.7896040E+02 -0.1570796E+01  0.4381816E+01 -0.3141592E+01  0.2258251E+03 -0.1570796E+01
  0.1638182E+02  0.7262344E+02 -0.1570796E+01  0.8252093E+00 -0.5069448E-05  0.2076950E+03 -0.1570796E+01
  0.1658283E+02  0.6657513E+02 -0.1570796E+01  0.5711034E+01  0.1970650E-07  0.1903916E+03 -0.1570796E+01
  0.1678384E+02  0.6081360E+02 -0.1570796E+01  0.1027764E+02 -0.5902168E-06  0.1739086E+03 -0.1570796E+01
  0.1698485E+02  0.5533609E+02 -0.1570796E+01  0.1452813E+02 -0.2789890E-06  0.1582385E+03 -0.1570796E+01
  0.1718586E+02  0.5013834E+02 -0.1570796E+01  0.1846672E+02 -0.2161812E-06  0.1433679E+03 -0.1570796E+01
  0.1738687E+02  0.4521551E+02 -0.1570796E+01  0.2209864E+02 -0.1472633E-06  0.1292848E+03 -0.1570796E+01
  0.1758788E+02  0.4056160E+02 -0.1570796E+01  0.2543000E+02 -0.1337523E-06  0.1159712E+03 -0.1570796E+01
  0.1778889E+02  0.3617017E+02 -0.1570796E+01  0.2846766E+02 -0.8800492E-07  0.1034089E+03 -0.1570796E+01
  0.1798990E+02  0.3203434E+02 -0.1570796E+01  0.3121909E+02 -0.2683932E-08  0.9157736E+02 -0.1570796E+01
  0.1819091E+02  0.2814638E+02 -0.1570796E+01  0.3369230E+02 -0.3480646E-07  0.8045502E+02 -0.1570796E+01
  0.1839192E+02  0.2449812E+02 -0.1570796E+01  0.3589610E+02 -0.2900868E-07  0.7001897E+02 -0.1570796E+01
  0.1859293E+02  0.2108149E+02 -0.1570796E+01  0.3783935E+02 -0.9771593E-07  0.6024596E+02 -0.1570796E+01
  0.1879394E+02  0.1788784E+02 -0.1570796E+01  0.3953141E+02  0.1218141E-07  0.5111052E+02 -0.1570796E+01
  0.1899495E+02  0.1490840E+02 -0.1570796E+01  0.4098179E+02 -0.1367294E-07  0.4258844E+02 -0.1570796E+01
  0.1919596E+02  0.1213428E+02 -0.1570796E+01  0.4220039E+02 -0.1660942E-06  0.3465372E+02 -0.1570796E+01
  0.1939697E+02  0.9556747E+01 -0.1570796E+01  0.4319678E+02 -0.3587550E-08  0.2728149E+02 -0.1570796E+01
  0.1959798E+02  0.7166842E+01 -0.1570796E+01  0.4398109E+02 -0.8045720E-07  0.2044634E+02 -0.1570796E+01
  0.1979899E+02  0.4955856E+01 -0.1570796E+01  0.4456328E+02 -0.6630067E-07  0.1412306E+02 -0.1570796E+01
  0.2000000E+02  0.2915117E+01 -0.1570797E+01  0.4495317E+02 -0.1035551E-07  0.8287015E+01 -0.1570797E+01
