 VARIABLES="Time (s)"
"AddedMass    1" "IRF    1"
"AddedMass    2" "IRF    2"
"AddedMass    3" "IRF    3"
Zone t="DoF    1",I=   800,F=POINT
  0.0000000E+00  0.5963564E+01  0.2073141E+03  0.4454241E-06 -0.1113757E-04  0.1706257E+02  0.5930804E+03
  0.1000000E-01  0.5963564E+01  0.2066084E+03  0.4454241E-06 -0.1106822E-04  0.1706257E+02  0.5910614E+03
  0.2000000E-01  0.5963564E+01  0.2044992E+03  0.4454241E-06 -0.1086233E-04  0.1706257E+02  0.5850269E+03
  0.3000000E-01  0.5963564E+01  0.2010099E+03  0.4454241E-06 -0.1052646E-04  0.1706257E+02  0.5750435E+03
  0.4000000E-01  0.5963564E+01  0.1961794E+03  0.4454241E-06 -0.1007120E-04  0.1706257E+02  0.5612227E+03
  0.5000000E-01  0.5963564E+01  0.1900607E+03  0.4454241E-06 -0.9510889E-05  0.1706257E+02  0.5437162E+03
  0.6000000E-01  0.5963564E+01  0.1827204E+03  0.4454241E-06 -0.8862974E-05  0.1706257E+02  0.5227148E+03
  0.7000000E-01  0.5963564E+01  0.1742378E+03  0.4454241E-06 -0.8147509E-05  0.1706257E+02  0.4984452E+03
  0.8000000E-01  0.5963564E+01  0.1647032E+03  0.4454241E-06 -0.7386320E-05  0.1706257E+02  0.4711660E+03
  0.9000000E-01  0.5963564E+01  0.1542162E+03  0.4454241E-06 -0.6602248E-05  0.1706257E+02  0.4411618E+03
  0.9999999E-01  0.5963564E+01  0.1428842E+03  0.4454241E-06 -0.5818316E-05  0.1706257E+02  0.4087407E+03
  0.1100000E+00  0.5963564E+01  0.1308210E+03  0.4454241E-06 -0.5056873E-05  0.1706257E+02  0.3742272E+03
  0.1200000E+00  0.5963564E+01  0.1181443E+03  0.4454241E-06 -0.4338801E-05  0.1706257E+02  0.3379588E+03
  0.1300000E+00  0.5963564E+01  0.1049741E+03  0.4454241E-06 -0.3682718E-05  0.1706257E+02  0.3002796E+03
  0.1400000E+00  0.5963564E+01  0.9143130E+02  0.4454241E-06 -0.3104332E-05  0.1706257E+02  0.2615341E+03
  0.1500000E+00  0.5963564E+01  0.7763500E+02  0.4454241E-06 -0.2615856E-05  0.1706257E+02  0.2220641E+03
  0.1600000E+00  0.5963564E+01  0.6370171E+02  0.4454241E-06 -0.2225544E-05  0.1706257E+02  0.1822026E+03
  0.1700000E+00  0.5963564E+01  0.4974308E+02  0.4454241E-06 -0.1937433E-05  0.1706257E+02  0.1422693E+03
  0.1800000E+00  0.5963564E+01  0.3586509E+02  0.4454241E-06 -0.1751170E-05  0.1706257E+02  0.1025670E+03
  0.1900000E+00  0.5963564E+01  0.2216616E+02  0.4454241E-06 -0.1662052E-05  0.1706257E+02  0.6337772E+02
  0.2000000E+00  0.5963564E+01  0.8736753E+01  0.4454241E-06 -0.1661201E-05  0.1706257E+02  0.2496010E+02
  0.2100000E+00  0.5963564E+01 -0.4341917E+01  0.4454241E-06 -0.1735936E-05  0.1706257E+02 -0.1245349E+02
  0.2200000E+00  0.5963564E+01 -0.1699821E+02  0.4454241E-06 -0.1870244E-05  0.1706257E+02 -0.4865815E+02
  0.2300000E+00  0.5963564E+01 -0.2917053E+02  0.4454241E-06 -0.2045392E-05  0.1706257E+02 -0.8347766E+02
  0.2400000E+00  0.5963564E+01 -0.4080749E+02  0.4454241E-06 -0.2240680E-05  0.1706257E+02 -0.1167650E+03
  0.2500000E+00  0.5963564E+01 -0.5186768E+02  0.4454241E-06 -0.2434256E-05  0.1706257E+02 -0.1484018E+03
  0.2600000E+00  0.5963564E+01 -0.6231954E+02  0.4454241E-06 -0.2603946E-05  0.1706257E+02 -0.1782979E+03
  0.2700000E+00  0.5963564E+01 -0.7214075E+02  0.4454241E-06 -0.2728182E-05  0.1706257E+02 -0.2063894E+03
  0.2800000E+00  0.5963564E+01 -0.8131767E+02  0.4454241E-06 -0.2786848E-05  0.1706257E+02 -0.2326375E+03
  0.2900000E+00  0.5963564E+01 -0.8984450E+02  0.4454241E-06 -0.2762130E-05  0.1706257E+02 -0.2570253E+03
  0.3000000E+00  0.5963564E+01 -0.9772223E+02  0.4454241E-06 -0.2639264E-05  0.1706257E+02 -0.2795562E+03
  0.3100000E+00  0.5963564E+01 -0.1049578E+03  0.4454241E-06 -0.2407206E-05  0.1706257E+02 -0.3002501E+03
  0.3200000E+00  0.5963564E+01 -0.1115632E+03  0.4454241E-06 -0.2059155E-05  0.1706257E+02 -0.3191408E+03
  0.3300000E+00  0.5963564E+01 -0.1175538E+03  0.4454241E-06 -0.1592941E-05  0.1706257E+02 -0.3362732E+03
  0.3400000E+00  0.5963564E+01 -0.1229478E+03  0.4454241E-06 -0.1011227E-05  0.1706257E+02 -0.3516989E+03
  0.3500000E+00  0.5963564E+01 -0.1277650E+03  0.4454241E-06 -0.3215801E-06  0.1706257E+02 -0.3654745E+03
  0.3600000E+00  0.5963564E+01 -0.1320258E+03  0.4454241E-06  0.4636904E-06  0.1706257E+02 -0.3776591E+03
  0.3700000E+00  0.5963564E+01 -0.1357503E+03  0.4454241E-06  0.1327833E-05  0.1706257E+02 -0.3883096E+03
  0.3800000E+00  0.5963564E+01 -0.1389573E+03  0.4454241E-06  0.2250148E-05  0.1706257E+02 -0.3974799E+03
  0.3900000E+00  0.5963564E+01 -0.1416637E+03  0.4454241E-06  0.3206591E-05  0.1706257E+02 -0.4052192E+03
  0.4000000E+00  0.5963564E+01 -0.1438843E+03  0.4454241E-06  0.4170591E-05  0.1706257E+02 -0.4115690E+03
  0.4100000E+00  0.5963564E+01 -0.1456309E+03  0.4454241E-06  0.5113899E-05  0.1706257E+02 -0.4165633E+03
  0.4200000E+00  0.5963564E+01 -0.1469122E+03  0.4454241E-06  0.6007531E-05  0.1706257E+02 -0.4202271E+03
  0.4300000E+00  0.5963564E+01 -0.1477337E+03  0.4454241E-06  0.6822842E-05  0.1706257E+02 -0.4225758E+03
  0.4400000E+00  0.5963564E+01 -0.1480976E+03  0.4454241E-06  0.7532487E-05  0.1706257E+02 -0.4236165E+03
  0.4500000E+00  0.5963564E+01 -0.1480033E+03  0.4454241E-06  0.8111440E-05  0.1706257E+02 -0.4233469E+03
  0.4600000E+00  0.5963564E+01 -0.1474473E+03  0.4454241E-06  0.8537964E-05  0.1706257E+02 -0.4217570E+03
  0.4700000E+00  0.5963564E+01 -0.1464237E+03  0.4454241E-06  0.8794434E-05  0.1706257E+02 -0.4188299E+03
  0.4800000E+00  0.5963564E+01 -0.1449250E+03  0.4454241E-06  0.8868108E-05  0.1706257E+02 -0.4145443E+03
  0.4900000E+00  0.5963564E+01 -0.1429421E+03  0.4454241E-06  0.8751691E-05  0.1706257E+02 -0.4088737E+03
  0.5000000E+00  0.5963564E+01 -0.1404655E+03  0.4454241E-06  0.8443757E-05  0.1706257E+02 -0.4017914E+03
  0.5100000E+00  0.5963564E+01 -0.1374855E+03  0.4454241E-06  0.7949014E-05  0.1706257E+02 -0.3932697E+03
  0.5200000E+00  0.5963564E+01 -0.1339936E+03  0.4454241E-06  0.7278293E-05  0.1706257E+02 -0.3832834E+03
  0.5300000E+00  0.5963564E+01 -0.1299822E+03  0.4454241E-06  0.6448399E-05  0.1706257E+02 -0.3718111E+03
  0.5400000E+00  0.5963564E+01 -0.1254459E+03  0.4454241E-06  0.5481773E-05  0.1706257E+02 -0.3588379E+03
  0.5500000E+00  0.5963564E+01 -0.1203822E+03  0.4454241E-06  0.4405856E-05  0.1706257E+02 -0.3443558E+03
  0.5600000E+00  0.5963564E+01 -0.1147917E+03  0.4454241E-06  0.3252474E-05  0.1706257E+02 -0.3283667E+03
  0.5700000E+00  0.5963564E+01 -0.1086788E+03  0.4454241E-06  0.2056804E-05  0.1706257E+02 -0.3108836E+03
  0.5800000E+00  0.5963564E+01 -0.1020522E+03  0.4454241E-06  0.8564838E-06  0.1706257E+02 -0.2919309E+03
  0.5900000E+00  0.5963564E+01 -0.9492503E+02  0.4454241E-06 -0.3095768E-06  0.1706257E+02 -0.2715459E+03
  0.6000000E+00  0.5963564E+01 -0.8731508E+02  0.4454241E-06 -0.1402357E-05  0.1706257E+02 -0.2497800E+03
  0.6100000E+00  0.5963564E+01 -0.7924514E+02  0.4454241E-06 -0.2383890E-05  0.1706257E+02 -0.2266982E+03
  0.6200000E+00  0.5963564E+01 -0.7074303E+02  0.4454241E-06 -0.3218493E-05  0.1706257E+02 -0.2023797E+03
  0.6300000E+00  0.5963564E+01 -0.6184116E+02  0.4454241E-06 -0.3873874E-05  0.1706257E+02 -0.1769178E+03
  0.6400000E+00  0.5963564E+01 -0.5257679E+02  0.4454241E-06 -0.4322213E-05  0.1706257E+02 -0.1504185E+03
  0.6500000E+00  0.5963564E+01 -0.4299152E+02  0.4454241E-06 -0.4541020E-05  0.1706257E+02 -0.1230011E+03
  0.6600000E+00  0.5963564E+01 -0.3313106E+02  0.4454241E-06 -0.4513966E-05  0.1706257E+02 -0.9479632E+02
  0.6700000E+00  0.5963564E+01 -0.2304479E+02  0.4454241E-06 -0.4231447E-05  0.1706257E+02 -0.6594535E+02
  0.6800000E+00  0.5963564E+01 -0.1278530E+02  0.4454241E-06 -0.3690963E-05  0.1706257E+02 -0.3659861E+02
  0.6900000E+00  0.5963564E+01 -0.2407984E+01  0.4454241E-06 -0.2897316E-05  0.1706257E+02 -0.6914593E+01
  0.7000000E+00  0.5963564E+01  0.8029754E+01  0.4454241E-06 -0.1862573E-05  0.1706257E+02  0.2294248E+02
  0.7100000E+00  0.5963564E+01  0.1846887E+02  0.4454241E-06 -0.6057778E-06  0.1706257E+02  0.5280373E+02
  0.7200000E+00  0.5963564E+01  0.2884942E+02  0.4454241E-06  0.8475263E-06  0.1706257E+02  0.8249766E+02
  0.7300000E+00  0.5963564E+01  0.3911096E+02  0.4454241E-06  0.2465937E-05  0.1706257E+02  0.1118514E+03
  0.7400000E+00  0.5963564E+01  0.4919345E+02  0.4454241E-06  0.4213106E-05  0.1706257E+02  0.1406932E+03
  0.7500000E+00  0.5963564E+01  0.5903732E+02  0.4454241E-06  0.6048663E-05  0.1706257E+02  0.1688526E+03
  0.7600000E+00  0.5963564E+01  0.6858454E+02  0.4454241E-06  0.7929422E-05  0.1706257E+02  0.1961637E+03
  0.7700000E+00  0.5963564E+01  0.7777895E+02  0.4454241E-06  0.9810559E-05  0.1706257E+02  0.2224655E+03
  0.7800000E+00  0.5963564E+01  0.8656645E+02  0.4454241E-06  0.1164690E-04  0.1706257E+02  0.2476039E+03
  0.7900000E+00  0.5963564E+01  0.9489600E+02  0.4454241E-06  0.1339418E-04  0.1706257E+02  0.2714322E+03
  0.8000000E+00  0.5963564E+01  0.1027194E+03  0.4454241E-06  0.1501031E-04  0.1706257E+02  0.2938128E+03
  0.8100000E+00  0.5963564E+01  0.1099921E+03  0.4454241E-06  0.1645651E-04  0.1706257E+02  0.3146181E+03
  0.8200000E+00  0.5963564E+01  0.1166729E+03  0.4454241E-06  0.1769843E-04  0.1706257E+02  0.3337310E+03
  0.8300000E+00  0.5963564E+01  0.1227253E+03  0.4454241E-06  0.1870703E-04  0.1706257E+02  0.3510459E+03
  0.8400000E+00  0.5963564E+01  0.1281163E+03  0.4454241E-06  0.1945943E-04  0.1706257E+02  0.3664688E+03
  0.8500000E+00  0.5963564E+01  0.1328175E+03  0.4454241E-06  0.1993943E-04  0.1706257E+02  0.3799189E+03
  0.8600000E+00  0.5963564E+01  0.1368051E+03  0.4454241E-06  0.2013787E-04  0.1706257E+02  0.3913275E+03
  0.8700000E+00  0.5963564E+01  0.1400595E+03  0.4454241E-06  0.2005279E-04  0.1706257E+02  0.4006394E+03
  0.8800000E+00  0.5963564E+01  0.1425660E+03  0.4454241E-06  0.1968944E-04  0.1706257E+02  0.4078115E+03
  0.8900000E+00  0.5963564E+01  0.1443142E+03  0.4454241E-06  0.1905987E-04  0.1706257E+02  0.4128148E+03
  0.9000000E+00  0.5963564E+01  0.1452983E+03  0.4454241E-06  0.1818254E-04  0.1706257E+02  0.4156324E+03
  0.9100000E+00  0.5963564E+01  0.1455174E+03  0.4454241E-06  0.1708162E-04  0.1706257E+02  0.4162614E+03
  0.9200000E+00  0.5963564E+01  0.1449743E+03  0.4454241E-06  0.1578604E-04  0.1706257E+02  0.4147101E+03
  0.9300000E+00  0.5963564E+01  0.1436767E+03  0.4454241E-06  0.1432871E-04  0.1706257E+02  0.4110006E+03
  0.9400000E+00  0.5963564E+01  0.1416365E+03  0.4454241E-06  0.1274527E-04  0.1706257E+02  0.4051667E+03
  0.9500000E+00  0.5963564E+01  0.1388693E+03  0.4454241E-06  0.1107296E-04  0.1706257E+02  0.3972535E+03
  0.9600000E+00  0.5963564E+01  0.1353952E+03  0.4454241E-06  0.9349517E-05  0.1706257E+02  0.3873174E+03
  0.9700000E+00  0.5963564E+01  0.1312377E+03  0.4454241E-06  0.7611879E-05  0.1706257E+02  0.3754266E+03
  0.9800000E+00  0.5963564E+01  0.1264240E+03  0.4454241E-06  0.5895140E-05  0.1706257E+02  0.3616588E+03
  0.9899999E+00  0.5963564E+01  0.1209850E+03  0.4454241E-06  0.4231455E-05  0.1706257E+02  0.3461020E+03
  0.1000000E+01  0.5963564E+01  0.1149545E+03  0.4454241E-06  0.2649115E-05  0.1706257E+02  0.3288530E+03
  0.1010000E+01  0.5963564E+01  0.1083696E+03  0.4454241E-06  0.1171761E-05  0.1706257E+02  0.3100179E+03
  0.1020000E+01  0.5963564E+01  0.1012699E+03  0.4454241E-06 -0.1822392E-06  0.1706257E+02  0.2897102E+03
  0.1030000E+01  0.5963564E+01  0.9369784E+02  0.4454241E-06 -0.1400291E-05  0.1706257E+02  0.2680510E+03
  0.1040000E+01  0.5963564E+01  0.8569798E+02  0.4454241E-06 -0.2475678E-05  0.1706257E+02  0.2451680E+03
  0.1050000E+01  0.5963564E+01  0.7731693E+02  0.4454241E-06 -0.3407719E-05  0.1706257E+02  0.2211943E+03
  0.1060000E+01  0.5963564E+01  0.6860307E+02  0.4454241E-06 -0.4201528E-05  0.1706257E+02  0.1962684E+03
  0.1070000E+01  0.5963564E+01  0.5960616E+02  0.4454241E-06 -0.4867694E-05  0.1706257E+02  0.1705327E+03
  0.1080000E+01  0.5963564E+01  0.5037724E+02  0.4454241E-06 -0.5421668E-05  0.1706257E+02  0.1441331E+03
  0.1090000E+01  0.5963564E+01  0.4096800E+02  0.4454241E-06 -0.5883074E-05  0.1706257E+02  0.1172174E+03
  0.1100000E+01  0.5963564E+01  0.3143087E+02  0.4454241E-06 -0.6274928E-05  0.1706257E+02  0.8993591E+02
  0.1110000E+01  0.5963564E+01  0.2181836E+02  0.4454241E-06 -0.6622588E-05  0.1706257E+02  0.6243858E+02
  0.1120000E+01  0.5963564E+01  0.1218287E+02  0.4454241E-06 -0.6952795E-05  0.1706257E+02  0.3487532E+02
  0.1130000E+01  0.5963564E+01  0.2576411E+01  0.4454241E-06 -0.7292538E-05  0.1706257E+02  0.7394993E+01
  0.1140000E+01  0.5963564E+01 -0.6949761E+01  0.4454241E-06 -0.7668092E-05  0.1706257E+02 -0.1985582E+02
  0.1150000E+01  0.5963564E+01 -0.1634540E+02  0.4454241E-06 -0.8103899E-05  0.1706257E+02 -0.4673334E+02
  0.1160000E+01  0.5963564E+01 -0.2556157E+02  0.4454241E-06 -0.8621632E-05  0.1706257E+02 -0.7309758E+02
  0.1170000E+01  0.5963564E+01 -0.3455090E+02  0.4454241E-06 -0.9239355E-05  0.1706257E+02 -0.9881307E+02
  0.1180000E+01  0.5963564E+01 -0.4326792E+02  0.4454241E-06 -0.9970723E-05  0.1706257E+02 -0.1237497E+03
  0.1190000E+01  0.5963564E+01 -0.5166920E+02  0.4454241E-06 -0.1082448E-04  0.1706257E+02 -0.1477831E+03
  0.1200000E+01  0.5963564E+01 -0.5971368E+02  0.4454241E-06 -0.1180403E-04  0.1706257E+02 -0.1707960E+03
  0.1210000E+01  0.5963564E+01 -0.6736274E+02  0.4454241E-06 -0.1290718E-04  0.1706257E+02 -0.1926780E+03
  0.1220000E+01  0.5963564E+01 -0.7458060E+02  0.4454241E-06 -0.1412613E-04  0.1706257E+02 -0.2133263E+03
  0.1230000E+01  0.5963564E+01 -0.8133395E+02  0.4454241E-06 -0.1544761E-04  0.1706257E+02 -0.2326461E+03
  0.1240000E+01  0.5963564E+01 -0.8759285E+02  0.4454241E-06 -0.1685322E-04  0.1706257E+02 -0.2505515E+03
  0.1250000E+01  0.5963564E+01 -0.9333025E+02  0.4454241E-06 -0.1831998E-04  0.1706257E+02 -0.2669651E+03
  0.1260000E+01  0.5963564E+01 -0.9852230E+02  0.4454241E-06 -0.1982101E-04  0.1706257E+02 -0.2818187E+03
  0.1270000E+01  0.5963564E+01 -0.1031483E+03  0.4454241E-06 -0.2132613E-04  0.1706257E+02 -0.2950534E+03
  0.1280000E+01  0.5963564E+01 -0.1071910E+03  0.4454241E-06 -0.2280308E-04  0.1706257E+02 -0.3066193E+03
  0.1290000E+01  0.5963564E+01 -0.1106362E+03  0.4454241E-06 -0.2421823E-04  0.1706257E+02 -0.3164763E+03
  0.1300000E+01  0.5963564E+01 -0.1134734E+03  0.4454241E-06 -0.2553767E-04  0.1706257E+02 -0.3245936E+03
  0.1310000E+01  0.5963564E+01 -0.1156947E+03  0.4454241E-06 -0.2672824E-04  0.1706257E+02 -0.3309495E+03
  0.1320000E+01  0.5963564E+01 -0.1172961E+03  0.4454241E-06 -0.2775857E-04  0.1706257E+02 -0.3355321E+03
  0.1330000E+01  0.5963564E+01 -0.1182766E+03  0.4454241E-06 -0.2859987E-04  0.1706257E+02 -0.3383384E+03
  0.1340000E+01  0.5963564E+01 -0.1186382E+03  0.4454241E-06 -0.2922693E-04  0.1706257E+02 -0.3393747E+03
  0.1350000E+01  0.5963564E+01 -0.1183863E+03  0.4454241E-06 -0.2961872E-04  0.1706257E+02 -0.3386555E+03
  0.1360000E+01  0.5963564E+01 -0.1175290E+03  0.4454241E-06 -0.2975904E-04  0.1706257E+02 -0.3362048E+03
  0.1370000E+01  0.5963564E+01 -0.1160777E+03  0.4454241E-06 -0.2963695E-04  0.1706257E+02 -0.3320548E+03
  0.1380000E+01  0.5963564E+01 -0.1140465E+03  0.4454241E-06 -0.2924703E-04  0.1706257E+02 -0.3262456E+03
  0.1390000E+01  0.5963564E+01 -0.1114520E+03  0.4454241E-06 -0.2858951E-04  0.1706257E+02 -0.3188254E+03
  0.1400000E+01  0.5963564E+01 -0.1083138E+03  0.4454241E-06 -0.2767006E-04  0.1706257E+02 -0.3098501E+03
  0.1410000E+01  0.5963564E+01 -0.1046541E+03  0.4454241E-06 -0.2649971E-04  0.1706257E+02 -0.2993825E+03
  0.1420000E+01  0.5963564E+01 -0.1004971E+03  0.4454241E-06 -0.2509433E-04  0.1706257E+02 -0.2874924E+03
  0.1430000E+01  0.5963564E+01 -0.9586961E+02  0.4454241E-06 -0.2347415E-04  0.1706257E+02 -0.2742563E+03
  0.1440000E+01  0.5963564E+01 -0.9080046E+02  0.4454241E-06 -0.2166296E-04  0.1706257E+02 -0.2597568E+03
  0.1450000E+01  0.5963564E+01 -0.8532052E+02  0.4454241E-06 -0.1968754E-04  0.1706257E+02 -0.2440820E+03
  0.1460000E+01  0.5963564E+01 -0.7946242E+02  0.4454241E-06 -0.1757672E-04  0.1706257E+02 -0.2273253E+03
  0.1470000E+01  0.5963564E+01 -0.7326046E+02  0.4454241E-06 -0.1536048E-04  0.1706257E+02 -0.2095849E+03
  0.1480000E+01  0.5963564E+01 -0.6675043E+02  0.4454241E-06 -0.1306913E-04  0.1706257E+02 -0.1909632E+03
  0.1490000E+01  0.5963564E+01 -0.5996954E+02  0.4454241E-06 -0.1073248E-04  0.1706257E+02 -0.1715666E+03
  0.1500000E+01  0.5963564E+01 -0.5295590E+02  0.4454241E-06 -0.8378988E-05  0.1706257E+02 -0.1515039E+03
  0.1510000E+01  0.5963564E+01 -0.4574864E+02  0.4454241E-06 -0.6035023E-05  0.1706257E+02 -0.1308873E+03
  0.1520000E+01  0.5963564E+01 -0.3838738E+02  0.4454241E-06 -0.3724255E-05  0.1706257E+02 -0.1098301E+03
  0.1530000E+01  0.5963564E+01 -0.3091249E+02  0.4454241E-06 -0.1467170E-05  0.1706257E+02 -0.8844765E+02
  0.1540000E+01  0.5963564E+01 -0.2336428E+02  0.4454241E-06  0.7193169E-06  0.1706257E+02 -0.6685539E+02
  0.1550000E+01  0.5963564E+01 -0.1578321E+02  0.4454241E-06  0.2822089E-05  0.1706257E+02 -0.4516904E+02
  0.1560000E+01  0.5963564E+01 -0.8209377E+01  0.4454241E-06  0.4831880E-05  0.1706257E+02 -0.2350323E+02
  0.1570000E+01  0.5963564E+01 -0.6826063E+00  0.4454241E-06  0.6743268E-05  0.1706257E+02 -0.1971963E+01
  0.1580000E+01  0.5963564E+01  0.6758160E+01  0.4454241E-06  0.8554413E-05  0.1706257E+02  0.1931339E+02
  0.1590000E+01  0.5963564E+01  0.1407476E+02  0.4454241E-06  0.1026669E-04  0.1706257E+02  0.4024365E+02
  0.1600000E+01  0.5963564E+01  0.2123034E+02  0.4454241E-06  0.1188440E-04  0.1706257E+02  0.6071334E+02
  0.1610000E+01  0.5963564E+01  0.2818926E+02  0.4454241E-06  0.1341399E-04  0.1706257E+02  0.8062064E+02
  0.1620000E+01  0.5963564E+01  0.3491731E+02  0.4454241E-06  0.1486359E-04  0.1706257E+02  0.9986751E+02
  0.1630000E+01  0.5963564E+01  0.4138216E+02  0.4454241E-06  0.1624235E-04  0.1706257E+02  0.1183616E+03
  0.1640000E+01  0.5963564E+01  0.4755343E+02  0.4454241E-06  0.1755976E-04  0.1706257E+02  0.1360159E+03
  0.1650000E+01  0.5963564E+01  0.5340258E+02  0.4454241E-06  0.1882494E-04  0.1706257E+02  0.1527487E+03
  0.1660000E+01  0.5963564E+01  0.5890334E+02  0.4454241E-06  0.2004609E-04  0.1706257E+02  0.1684850E+03
  0.1670000E+01  0.5963564E+01  0.6403169E+02  0.4454241E-06  0.2122988E-04  0.1706257E+02  0.1831562E+03
  0.1680000E+01  0.5963564E+01  0.6876598E+02  0.4454241E-06  0.2238099E-04  0.1706257E+02  0.1967000E+03
  0.1690000E+01  0.5963564E+01  0.7308705E+02  0.4454241E-06  0.2350177E-04  0.1706257E+02  0.2090618E+03
  0.1700000E+01  0.5963564E+01  0.7697813E+02  0.4454241E-06  0.2459192E-04  0.1706257E+02  0.2201937E+03
  0.1710000E+01  0.5963564E+01  0.8042507E+02  0.4454241E-06  0.2564845E-04  0.1706257E+02  0.2300551E+03
  0.1720000E+01  0.5963564E+01  0.8341621E+02  0.4454241E-06  0.2666562E-04  0.1706257E+02  0.2386126E+03
  0.1730000E+01  0.5963564E+01  0.8594256E+02  0.4454241E-06  0.2763516E-04  0.1706257E+02  0.2458405E+03
  0.1740000E+01  0.5963564E+01  0.8799739E+02  0.4454241E-06  0.2854638E-04  0.1706257E+02  0.2517198E+03
  0.1750000E+01  0.5963564E+01  0.8957687E+02  0.4454241E-06  0.2938679E-04  0.1706257E+02  0.2562391E+03
  0.1760000E+01  0.5963564E+01  0.9067927E+02  0.4454241E-06  0.3014239E-04  0.1706257E+02  0.2593937E+03
  0.1770000E+01  0.5963564E+01  0.9130545E+02  0.4454241E-06  0.3079834E-04  0.1706257E+02  0.2611861E+03
  0.1780000E+01  0.5963564E+01  0.9145863E+02  0.4454241E-06  0.3133956E-04  0.1706257E+02  0.2616256E+03
  0.1790000E+01  0.5963564E+01  0.9114420E+02  0.4454241E-06  0.3175141E-04  0.1706257E+02  0.2607273E+03
  0.1800000E+01  0.5963564E+01  0.9036991E+02  0.4454241E-06  0.3202029E-04  0.1706257E+02  0.2585134E+03
  0.1810000E+01  0.5963564E+01  0.8914551E+02  0.4454241E-06  0.3213440E-04  0.1706257E+02  0.2550119E+03
  0.1820000E+01  0.5963564E+01  0.8748274E+02  0.4454241E-06  0.3208420E-04  0.1706257E+02  0.2502567E+03
  0.1830000E+01  0.5963564E+01  0.8539554E+02  0.4454241E-06  0.3186311E-04  0.1706257E+02  0.2442870E+03
  0.1840000E+01  0.5963564E+01  0.8289938E+02  0.4454241E-06  0.3146773E-04  0.1706257E+02  0.2371476E+03
  0.1850000E+01  0.5963564E+01  0.8001169E+02  0.4454241E-06  0.3089831E-04  0.1706257E+02  0.2288883E+03
  0.1860000E+01  0.5963564E+01  0.7675158E+02  0.4454241E-06  0.3015887E-04  0.1706257E+02  0.2195634E+03
  0.1870000E+01  0.5963564E+01  0.7313963E+02  0.4454241E-06  0.2925723E-04  0.1706257E+02  0.2092321E+03
  0.1880000E+01  0.5963564E+01  0.6919797E+02  0.4454241E-06  0.2820494E-04  0.1706257E+02  0.1979574E+03
  0.1890000E+01  0.5963564E+01  0.6495006E+02  0.4454241E-06  0.2701698E-04  0.1706257E+02  0.1858067E+03
  0.1900000E+01  0.5963564E+01  0.6042054E+02  0.4454241E-06  0.2571132E-04  0.1706257E+02  0.1728504E+03
  0.1910000E+01  0.5963564E+01  0.5563530E+02  0.4454241E-06  0.2430851E-04  0.1706257E+02  0.1591626E+03
  0.1920000E+01  0.5963564E+01  0.5062128E+02  0.4454241E-06  0.2283090E-04  0.1706257E+02  0.1448201E+03
  0.1930000E+01  0.5963564E+01  0.4540616E+02  0.4454241E-06  0.2130203E-04  0.1706257E+02  0.1299024E+03
  0.1940000E+01  0.5963564E+01  0.4001865E+02  0.4454241E-06  0.1974568E-04  0.1706257E+02  0.1144913E+03
  0.1950000E+01  0.5963564E+01  0.3448780E+02  0.4454241E-06  0.1818517E-04  0.1706257E+02  0.9867013E+02
  0.1960000E+01  0.5963564E+01  0.2884341E+02  0.4454241E-06  0.1664243E-04  0.1706257E+02  0.8252412E+02
  0.1970000E+01  0.5963564E+01  0.2311554E+02  0.4454241E-06  0.1513715E-04  0.1706257E+02  0.6613921E+02
  0.1980000E+01  0.5963564E+01  0.1733443E+02  0.4454241E-06  0.1368610E-04  0.1706257E+02  0.4960191E+02
  0.1990000E+01  0.5963564E+01  0.1153045E+02  0.4454241E-06  0.1230236E-04  0.1706257E+02  0.3299910E+02
  0.2000000E+01  0.5963564E+01  0.5733874E+01  0.4454241E-06  0.1099480E-04  0.1706257E+02  0.1641735E+02
  0.2010000E+01  0.5963564E+01 -0.2539194E-01  0.4454241E-06  0.9767618E-05  0.1706257E+02 -0.5770933E-01
  0.2020000E+01  0.5963564E+01 -0.5717795E+01  0.4454241E-06  0.8620077E-05  0.1706257E+02 -0.1634160E+02
  0.2030000E+01  0.5963564E+01 -0.1131441E+02  0.4454241E-06  0.7546435E-05  0.1706257E+02 -0.3235156E+02
  0.2040000E+01  0.5963564E+01 -0.1678707E+02  0.4454241E-06  0.6536030E-05  0.1706257E+02 -0.4800706E+02
  0.2050000E+01  0.5963564E+01 -0.2210858E+02  0.4454241E-06  0.5573436E-05  0.1706257E+02 -0.6323014E+02
  0.2060000E+01  0.5963564E+01 -0.2725272E+02  0.4454241E-06  0.4639165E-05  0.1706257E+02 -0.7794603E+02
  0.2070000E+01  0.5963564E+01 -0.3219461E+02  0.4454241E-06  0.3710082E-05  0.1706257E+02 -0.9208331E+02
  0.2080000E+01  0.5963564E+01 -0.3691066E+02  0.4454241E-06  0.2760300E-05  0.1706257E+02 -0.1055746E+03
  0.2090000E+01  0.5963564E+01 -0.4137888E+02  0.4454241E-06  0.1762063E-05  0.1706257E+02 -0.1183571E+03
  0.2100000E+01  0.5963564E+01 -0.4557873E+02  0.4454241E-06  0.6868322E-06  0.1706257E+02 -0.1303720E+03
  0.2110000E+01  0.5963564E+01 -0.4949160E+02  0.4454241E-06 -0.4936498E-06  0.1706257E+02 -0.1415657E+03
  0.2120000E+01  0.5963564E+01 -0.5310046E+02  0.4454241E-06 -0.1806219E-05  0.1706257E+02 -0.1518901E+03
  0.2130000E+01  0.5963564E+01 -0.5639047E+02  0.4454241E-06 -0.3275121E-05  0.1706257E+02 -0.1613022E+03
  0.2140000E+01  0.5963564E+01 -0.5934841E+02  0.4454241E-06 -0.4920865E-05  0.1706257E+02 -0.1697645E+03
  0.2150000E+01  0.5963564E+01 -0.6196339E+02  0.4454241E-06 -0.6759248E-05  0.1706257E+02 -0.1772457E+03
  0.2160000E+01  0.5963564E+01 -0.6422620E+02  0.4454241E-06 -0.8800413E-05  0.1706257E+02 -0.1837195E+03
  0.2170000E+01  0.5963564E+01 -0.6613000E+02  0.4454241E-06 -0.1104806E-04  0.1706257E+02 -0.1891665E+03
  0.2180000E+01  0.5963564E+01 -0.6766978E+02  0.4454241E-06 -0.1349902E-04  0.1706257E+02 -0.1935720E+03
  0.2190000E+01  0.5963564E+01 -0.6884248E+02  0.4454241E-06 -0.1614241E-04  0.1706257E+02 -0.1969275E+03
  0.2200000E+01  0.5963564E+01 -0.6964721E+02  0.4454241E-06 -0.1896005E-04  0.1706257E+02 -0.1992305E+03
  0.2210000E+01  0.5963564E+01 -0.7008498E+02  0.4454241E-06 -0.2192622E-04  0.1706257E+02 -0.2004835E+03
  0.2220000E+01  0.5963564E+01 -0.7015852E+02  0.4454241E-06 -0.2500805E-04  0.1706257E+02 -0.2006947E+03
  0.2230000E+01  0.5963564E+01 -0.6987260E+02  0.4454241E-06 -0.2816596E-04  0.1706257E+02 -0.1998778E+03
  0.2240000E+01  0.5963564E+01 -0.6923360E+02  0.4454241E-06 -0.3135467E-04  0.1706257E+02 -0.1980505E+03
  0.2250000E+01  0.5963564E+01 -0.6824957E+02  0.4454241E-06 -0.3452399E-04  0.1706257E+02 -0.1952365E+03
  0.2260000E+01  0.5963564E+01 -0.6693018E+02  0.4454241E-06 -0.3762007E-04  0.1706257E+02 -0.1914631E+03
  0.2270000E+01  0.5963564E+01 -0.6528663E+02  0.4454241E-06 -0.4058682E-04  0.1706257E+02 -0.1867625E+03
  0.2280000E+01  0.5963564E+01 -0.6333151E+02  0.4454241E-06 -0.4336715E-04  0.1706257E+02 -0.1811704E+03
  0.2290000E+01  0.5963564E+01 -0.6107869E+02  0.4454241E-06 -0.4590476E-04  0.1706257E+02 -0.1747267E+03
  0.2300000E+01  0.5963564E+01 -0.5854321E+02  0.4454241E-06 -0.4814537E-04  0.1706257E+02 -0.1674745E+03
  0.2310000E+01  0.5963564E+01 -0.5574142E+02  0.4454241E-06 -0.5003852E-04  0.1706257E+02 -0.1594604E+03
  0.2320000E+01  0.5963564E+01 -0.5269063E+02  0.4454241E-06 -0.5153894E-04  0.1706257E+02 -0.1507341E+03
  0.2330000E+01  0.5963564E+01 -0.4940913E+02  0.4454241E-06 -0.5260772E-04  0.1706257E+02 -0.1413477E+03
  0.2340000E+01  0.5963564E+01 -0.4591593E+02  0.4454241E-06 -0.5321382E-04  0.1706257E+02 -0.1313557E+03
  0.2350000E+01  0.5963564E+01 -0.4223098E+02  0.4454241E-06 -0.5333485E-04  0.1706257E+02 -0.1208150E+03
  0.2360000E+01  0.5963564E+01 -0.3837485E+02  0.4454241E-06 -0.5295795E-04  0.1706257E+02 -0.1097848E+03
  0.2370000E+01  0.5963564E+01 -0.3436891E+02  0.4454241E-06 -0.5208017E-04  0.1706257E+02 -0.9832578E+02
  0.2380000E+01  0.5963564E+01 -0.3023454E+02  0.4454241E-06 -0.5070887E-04  0.1706257E+02 -0.8649944E+02
  0.2390000E+01  0.5963564E+01 -0.2599404E+02  0.4454241E-06 -0.4886156E-04  0.1706257E+02 -0.7436939E+02
  0.2400000E+01  0.5963564E+01 -0.2166978E+02  0.4454241E-06 -0.4656569E-04  0.1706257E+02 -0.6199968E+02
  0.2410000E+01  0.5963564E+01 -0.1728444E+02  0.4454241E-06 -0.4385792E-04  0.1706257E+02 -0.4945526E+02
  0.2420000E+01  0.5963564E+01 -0.1286074E+02  0.4454241E-06 -0.4078338E-04  0.1706257E+02 -0.3680094E+02
  0.2430000E+01  0.5963564E+01 -0.8421575E+01  0.4454241E-06 -0.3739428E-04  0.1706257E+02 -0.2410234E+02
  0.2440000E+01  0.5963564E+01 -0.3989456E+01  0.4454241E-06 -0.3374891E-04  0.1706257E+02 -0.1142383E+02
  0.2450000E+01  0.5963564E+01  0.4126942E+00  0.4454241E-06 -0.2991013E-04  0.1706257E+02  0.1169028E+01
  0.2460000E+01  0.5963564E+01  0.4763051E+01  0.4454241E-06 -0.2594336E-04  0.1706257E+02  0.1361378E+02
  0.2470000E+01  0.5963564E+01  0.9039603E+01  0.4454241E-06 -0.2191527E-04  0.1706257E+02  0.2584748E+02
  0.2480000E+01  0.5963564E+01  0.1322105E+02  0.4454241E-06 -0.1789184E-04  0.1706257E+02  0.3780919E+02
  0.2490000E+01  0.5963564E+01  0.1728678E+02  0.4454241E-06 -0.1393669E-04  0.1706257E+02  0.4943993E+02
  0.2500000E+01  0.5963564E+01  0.2121691E+02  0.4454241E-06 -0.1010944E-04  0.1706257E+02  0.6068284E+02
  0.2510000E+01  0.5963564E+01  0.2499236E+02  0.4454241E-06 -0.6464197E-05  0.1706257E+02  0.7148333E+02
  0.2520000E+01  0.5963564E+01  0.2859515E+02  0.4454241E-06 -0.3048180E-05  0.1706257E+02  0.8178990E+02
  0.2530000E+01  0.5963564E+01  0.3200815E+02  0.4454241E-06  0.9944726E-07  0.1706257E+02  0.9155371E+02
  0.2540000E+01  0.5963564E+01  0.3521560E+02  0.4454241E-06  0.2948395E-05  0.1706257E+02  0.1007295E+03
  0.2550000E+01  0.5963564E+01  0.3820308E+02  0.4454241E-06  0.5478043E-05  0.1706257E+02  0.1092760E+03
  0.2560000E+01  0.5963564E+01  0.4095725E+02  0.4454241E-06  0.7677554E-05  0.1706257E+02  0.1171552E+03
  0.2570000E+01  0.5963564E+01  0.4346642E+02  0.4454241E-06  0.9546126E-05  0.1706257E+02  0.1243336E+03
  0.2580000E+01  0.5963564E+01  0.4572019E+02  0.4454241E-06  0.1109257E-04  0.1706257E+02  0.1307814E+03
  0.2590000E+01  0.5963564E+01  0.4770989E+02  0.4454241E-06  0.1233489E-04  0.1706257E+02  0.1364739E+03
  0.2600000E+01  0.5963564E+01  0.4942828E+02  0.4454241E-06  0.1329937E-04  0.1706257E+02  0.1413902E+03
  0.2610000E+01  0.5963564E+01  0.5086972E+02  0.4454241E-06  0.1401961E-04  0.1706257E+02  0.1455142E+03
  0.2620000E+01  0.5963564E+01  0.5203020E+02  0.4454241E-06  0.1453513E-04  0.1706257E+02  0.1488345E+03
  0.2630000E+01  0.5963564E+01  0.5290732E+02  0.4454241E-06  0.1489007E-04  0.1706257E+02  0.1513443E+03
  0.2640000E+01  0.5963564E+01  0.5350034E+02  0.4454241E-06  0.1513148E-04  0.1706257E+02  0.1530413E+03
  0.2650000E+01  0.5963564E+01  0.5380987E+02  0.4454241E-06  0.1530779E-04  0.1706257E+02  0.1539276E+03
  0.2660000E+01  0.5963564E+01  0.5383830E+02  0.4454241E-06  0.1546708E-04  0.1706257E+02  0.1540094E+03
  0.2670000E+01  0.5963564E+01  0.5358924E+02  0.4454241E-06  0.1565554E-04  0.1706257E+02  0.1532977E+03
  0.2680000E+01  0.5963564E+01  0.5306795E+02  0.4454241E-06  0.1591582E-04  0.1706257E+02  0.1518070E+03
  0.2690000E+01  0.5963564E+01  0.5228082E+02  0.4454241E-06  0.1628572E-04  0.1706257E+02  0.1495560E+03
  0.2700000E+01  0.5963564E+01  0.5123576E+02  0.4454241E-06  0.1679685E-04  0.1706257E+02  0.1465670E+03
  0.2710000E+01  0.5963564E+01  0.4994162E+02  0.4454241E-06  0.1747367E-04  0.1706257E+02  0.1428657E+03
  0.2720000E+01  0.5963564E+01  0.4840870E+02  0.4454241E-06  0.1833282E-04  0.1706257E+02  0.1384812E+03
  0.2730000E+01  0.5963564E+01  0.4664796E+02  0.4454241E-06  0.1938233E-04  0.1706257E+02  0.1334451E+03
  0.2740000E+01  0.5963564E+01  0.4467163E+02  0.4454241E-06  0.2062168E-04  0.1706257E+02  0.1277920E+03
  0.2750000E+01  0.5963564E+01  0.4249263E+02  0.4454241E-06  0.2204172E-04  0.1706257E+02  0.1215593E+03
  0.2760000E+01  0.5963564E+01  0.4012466E+02  0.4454241E-06  0.2362500E-04  0.1706257E+02  0.1147860E+03
  0.2770000E+01  0.5963564E+01  0.3758220E+02  0.4454241E-06  0.2534652E-04  0.1706257E+02  0.1075135E+03
  0.2780000E+01  0.5963564E+01  0.3488037E+02  0.4454241E-06  0.2717438E-04  0.1706257E+02  0.9978512E+02