VARIABLES="w (rad/s)"
"A   1   1" "B   1   1"
"A   1   2" "B   1   2"
"A   1   3" "B   1   3"
Zone t="Motion of body    1 in DoF   1",I=   100,F=POINT
  0.1000000E+00  0.9952591E+01 -0.4147773E-11  0.2407905E-05 -0.5451284E-10  0.2847387E+02 -0.1186971E-10
  0.3010101E+00  0.9956739E+01  0.3633933E-07  0.1875345E-05 -0.1401879E-08  0.2848566E+02  0.1039721E-06
  0.5020202E+00  0.9981125E+01  0.1204105E-05  0.1900485E-05 -0.6719327E-08  0.2855552E+02  0.3444964E-05
  0.7030303E+00  0.1007575E+02  0.1332605E-04  0.1516646E-05 -0.1576135E-07  0.2882618E+02  0.3812619E-04
  0.9040404E+00  0.1012889E+02  0.7700977E-04  0.1683053E-05 -0.2934616E-07  0.2897817E+02  0.2203275E-03
  0.1105051E+01  0.1017336E+02  0.3117389E-03  0.1824528E-05 -0.5135100E-07  0.2910533E+02  0.8918949E-03
  0.1306061E+01  0.1022877E+02  0.9967635E-03  0.2375439E-05 -0.7864564E-07  0.2926403E+02  0.2851762E-02
  0.1507071E+01  0.1029079E+02  0.2691978E-02  0.1943048E-05 -0.9493021E-07  0.2944136E+02  0.7701802E-02
  0.1708081E+01  0.1036409E+02  0.6403625E-02  0.5618749E-06 -0.7995834E-07  0.2965113E+02  0.1832090E-01
  0.1909091E+01  0.1045367E+02  0.1380529E-01 -0.1336670E-06 -0.4777166E-07  0.2990738E+02  0.3949711E-01
  0.2110101E+01  0.1055519E+02  0.2750508E-01 -0.1863659E-06 -0.4077719E-07  0.3019769E+02  0.7869217E-01
  0.2311111E+01  0.1067273E+02  0.5138386E-01  0.2564943E-06 -0.2651450E-07  0.3053398E+02  0.1470093E+00
  0.2512121E+01  0.1081373E+02  0.9102137E-01 -0.1940780E-06 -0.7125709E-07  0.3093733E+02  0.2604121E+00
  0.2713131E+01  0.1096693E+02  0.1540654E+00 -0.5863822E-05 -0.3609257E-06  0.3137558E+02  0.4407807E+00
  0.2914141E+01  0.1114605E+02  0.2509990E+00 -0.2582266E-06 -0.1934677E-07  0.3188809E+02  0.7181059E+00
  0.3115151E+01  0.1135412E+02  0.3957489E+00 -0.3437654E-05 -0.4896501E-06  0.3248329E+02  0.1132233E+01
  0.3316161E+01  0.1158489E+02  0.6063021E+00 -0.1963237E-05 -0.4320173E-06  0.3314352E+02  0.1734617E+01
  0.3517171E+01  0.1184293E+02  0.9059832E+00 -0.2130393E-05 -0.1117893E-05  0.3388163E+02  0.2591989E+01
  0.3718182E+01  0.1214291E+02  0.1325863E+01 -0.1595043E-05 -0.1877197E-06  0.3473978E+02  0.3793245E+01
  0.3919192E+01  0.1247668E+02  0.1904036E+01 -0.3780595E-05 -0.2458284E-05  0.3569455E+02  0.5447354E+01
  0.4120202E+01  0.1284622E+02  0.2689910E+01 -0.3774836E-06 -0.4317844E-06  0.3675177E+02  0.7695690E+01
  0.4321212E+01  0.1325883E+02  0.3748006E+01 -0.7426939E-06 -0.2707471E-05  0.3793192E+02  0.1072279E+02
  0.4522222E+01  0.1372168E+02  0.5163003E+01  0.3465207E-05  0.2038735E-04  0.3925608E+02  0.1477095E+02
  0.4723232E+01  0.1424476E+02  0.7049493E+01  0.3184443E-06  0.1747388E-04  0.4075234E+02  0.2016799E+02
  0.4924242E+01  0.1482657E+02  0.9556709E+01 -0.5699248E-05 -0.2310635E-04  0.4241662E+02  0.2734063E+02
  0.5125252E+01  0.1546563E+02  0.1288430E+02  0.9266431E-05  0.1214875E-04  0.4424488E+02  0.3686044E+02
  0.5326262E+01  0.1616519E+02  0.1731636E+02 -0.5105761E-05 -0.9964267E-04  0.4624596E+02  0.4953964E+02
  0.5527273E+01  0.1692392E+02  0.2325975E+02  0.6582627E-05 -0.2702954E-04  0.4841629E+02  0.6654253E+02
  0.5728283E+01  0.1775460E+02  0.3138398E+02  0.4787425E-05 -0.4506344E-04  0.5079251E+02  0.8978392E+02
  0.5929293E+01  0.1859961E+02  0.4258681E+02  0.4338313E-05 -0.9426847E-05  0.5320929E+02  0.1218324E+03
  0.6130303E+01  0.1935562E+02  0.5827829E+02  0.3766277E-05  0.3020046E-04  0.5537165E+02  0.1667214E+03
  0.6331313E+01  0.1976172E+02  0.8040238E+02  0.6403170E-06  0.2959603E-04  0.5653305E+02  0.2300103E+03
  0.6532323E+01  0.1923400E+02  0.1111336E+03  0.8514365E-06  0.1848955E-04  0.5502250E+02  0.3179211E+03
  0.6733334E+01  0.1661152E+02  0.1502330E+03 -0.1886481E-05  0.3267964E-04  0.4751974E+02  0.4297653E+03
  0.6934343E+01  0.1045156E+02  0.1874443E+03 -0.3222735E-05  0.3929203E-04  0.2989772E+02  0.5362062E+03
  0.7135354E+01  0.1044986E+01  0.1984770E+03 -0.3877947E-05  0.2850778E-04  0.2989114E+01  0.5677535E+03
  0.7336363E+01 -0.7168787E+01  0.1662127E+03  0.2833817E-05  0.4016096E-05 -0.2050631E+02  0.4754483E+03
  0.7537374E+01 -0.1034723E+02  0.1137372E+03 -0.6489898E-05 -0.1585053E-04 -0.2959717E+02  0.3253336E+03
  0.7738384E+01 -0.9745335E+01  0.6938823E+02 -0.2225110E-05 -0.3453053E-04 -0.2787417E+02  0.1984693E+03
  0.7939394E+01 -0.7761038E+01  0.4028157E+02 -0.1272866E-05 -0.1870678E-05 -0.2219713E+02  0.1152099E+03
  0.8140405E+01 -0.5627141E+01  0.2253965E+02 -0.4541974E-06 -0.2276804E-04 -0.1609239E+02  0.6446088E+02
  0.8341414E+01 -0.3739067E+01  0.1197231E+02  0.5813638E-06  0.3339222E-04 -0.1069118E+02  0.3423530E+02
  0.8542424E+01 -0.2161635E+01  0.5756032E+01  0.5730261E-06 -0.3277382E-05 -0.6178691E+01  0.1645622E+02
  0.8743435E+01 -0.8840585E+00  0.2271277E+01  0.1429349E-05 -0.1718570E-04 -0.2524024E+01  0.6490614E+01
  0.8944445E+01  0.1647033E+00  0.4469576E+00  0.1499788E-05  0.3555819E-05  0.4760784E+00  0.1274553E+01
  0.9145455E+01  0.1013511E+01 -0.2573076E+00  0.1660004E-05 -0.1763509E-04  0.2904134E+01 -0.7377216E+00
  0.9346465E+01  0.1698308E+01 -0.2346094E+00  0.1289398E-05 -0.7273449E-05  0.4863000E+01 -0.6706730E+00
  0.9547475E+01  0.2252576E+01  0.2416102E+00  0.1921666E-07 -0.5054040E-05  0.6448471E+01  0.6935050E+00
  0.9748485E+01  0.2703247E+01  0.1014031E+01  0.1313799E-05  0.1287481E-04  0.7737557E+01  0.2904813E+01
  0.9949495E+01  0.3061921E+01  0.1951028E+01  0.8829761E-06 -0.3306806E-05  0.8763475E+01  0.5586696E+01
  0.1015051E+02  0.3351714E+01  0.2966607E+01  0.9070534E-06 -0.1679931E-04  0.9592331E+01  0.8493209E+01
  0.1035151E+02  0.3581953E+01  0.3972728E+01  0.1044998E-05 -0.5253736E-05  0.1025082E+02  0.1137241E+02
  0.1055252E+02  0.3763514E+01  0.4926659E+01 -0.1650386E-07  0.1167515E-04  0.1077010E+02  0.1410223E+02
  0.1075354E+02  0.3906616E+01  0.5829987E+01  0.7737393E-06 -0.1615699E-05  0.1117934E+02  0.1668714E+02
  0.1095455E+02  0.4018188E+01  0.6624636E+01 -0.3944787E-07 -0.9004638E-05  0.1149839E+02  0.1896107E+02
  0.1115556E+02  0.4105508E+01  0.7323175E+01  0.8236636E-06 -0.5244277E-05  0.1174805E+02  0.2095981E+02
  0.1135657E+02  0.4173500E+01  0.7924355E+01  0.3706734E-07 -0.1635402E-05  0.1194247E+02  0.2267997E+02
  0.1155758E+02  0.4227302E+01  0.8430573E+01  0.8306300E-06 -0.3182591E-05  0.1209628E+02  0.2412844E+02
  0.1175859E+02  0.4269328E+01  0.8831743E+01 -0.2843409E-06 -0.2587884E-05  0.1221640E+02  0.2527621E+02
  0.1195960E+02  0.4302359E+01  0.9089996E+01  0.9978567E-06  0.1716219E-04  0.1231081E+02  0.2601493E+02
  0.1216061E+02  0.4329282E+01  0.9250359E+01 -0.3518323E-06  0.5754206E-05  0.1238776E+02  0.2647368E+02
  0.1236162E+02  0.4351446E+01  0.9303207E+01  0.2285811E-06 -0.1159613E-05  0.1245105E+02  0.2662478E+02
  0.1256263E+02  0.4371711E+01  0.9290898E+01  0.9329069E-06  0.1310375E-04  0.1250895E+02  0.2658945E+02
  0.1276364E+02  0.4390725E+01  0.9201118E+01 -0.2064962E-06 -0.9335286E-05  0.1256329E+02  0.2633247E+02
  0.1296465E+02  0.4408652E+01  0.9057775E+01  0.5416399E-07  0.2874993E-05  0.1261454E+02  0.2592217E+02
  0.1316566E+02  0.4426454E+01  0.8847336E+01  0.8420743E-06 -0.3350739E-05  0.1266538E+02  0.2531987E+02
  0.1336667E+02  0.4445302E+01  0.8592099E+01 -0.1670249E-05 -0.1363260E-04  0.1271924E+02  0.2458935E+02
  0.1356768E+02  0.4463997E+01  0.8316810E+01 -0.4077378E-06 -0.1090469E-04  0.1277271E+02  0.2380148E+02
  0.1376869E+02  0.4484917E+01  0.7990518E+01  0.6605782E-06  0.1519844E-04  0.1283252E+02  0.2286776E+02
  0.1396970E+02  0.4507440E+01  0.7647312E+01  0.7992080E-06 -0.7771905E-06  0.1289692E+02  0.2188555E+02
  0.1417071E+02  0.4530270E+01  0.7269797E+01 -0.1551031E-07 -0.4486305E-05  0.1296218E+02  0.2080521E+02
  0.1437172E+02  0.4554277E+01  0.6887176E+01 -0.3770206E-06  0.9693769E-05  0.1303085E+02  0.1971028E+02
  0.1457273E+02  0.4579321E+01  0.6502241E+01  0.1361636E-05  0.1355775E-04  0.1310245E+02  0.1860871E+02
  0.1477374E+02  0.4605385E+01  0.6113053E+01  0.9070059E-06 -0.5490509E-05  0.1317704E+02  0.1749494E+02
  0.1497475E+02  0.4632105E+01  0.5721790E+01  0.1140617E-06  0.1342424E-04  0.1325343E+02  0.1637532E+02
  0.1517576E+02  0.4659656E+01  0.5328426E+01  0.6010488E-06  0.9048709E-05  0.1333226E+02  0.1524966E+02
  0.1537677E+02  0.4687693E+01  0.4946527E+01  0.5105786E-06 -0.7511493E-05  0.1341247E+02  0.1415671E+02
  0.1557778E+02  0.4716138E+01  0.4566867E+01 -0.1027112E-06 -0.7113864E-05  0.1349383E+02  0.1307024E+02
  0.1577879E+02  0.4745826E+01  0.4199285E+01  0.4691204E-06  0.2603323E-04  0.1357873E+02  0.1201838E+02
  0.1597980E+02  0.4775547E+01  0.3850124E+01  0.2268889E-05 -0.1081360E-04  0.1366375E+02  0.1101921E+02
  0.1618081E+02  0.4804957E+01  0.3509521E+01  0.2326578E-05 -0.7138400E-05  0.1374789E+02  0.1004452E+02
  0.1638182E+02  0.4835702E+01  0.3177393E+01  0.1173177E-05 -0.7571089E-05  0.1383586E+02  0.9094042E+01
  0.1658283E+02  0.4866177E+01  0.2865136E+01  0.2027443E-06  0.9886624E-05  0.1392305E+02  0.8200513E+01
  0.1678384E+02  0.4896310E+01  0.2569980E+01  0.2613654E-05 -0.1915843E-04  0.1400923E+02  0.7355854E+01
  0.1698485E+02  0.4926022E+01  0.2294550E+01  0.1836671E-05  0.1712396E-04  0.1409425E+02  0.6567660E+01
  0.1718586E+02  0.4955614E+01  0.2044056E+01  0.9911573E-06 -0.2298810E-05  0.1417890E+02  0.5850819E+01
  0.1738687E+02  0.4985235E+01  0.1801430E+01  0.5348972E-06 -0.4242978E-05  0.1426363E+02  0.5156495E+01
  0.1758788E+02  0.5014251E+01  0.1589278E+01  0.7862391E-06  0.8235998E-05  0.1434665E+02  0.4549370E+01
  0.1778889E+02  0.5042616E+01  0.1384223E+01 -0.1106767E-06 -0.2087923E-05  0.1442777E+02  0.3962539E+01
  0.1798990E+02  0.5070586E+01  0.1213544E+01  0.1695959E-06  0.8778443E-06  0.1450782E+02  0.3474079E+01
  0.1819091E+02  0.5097558E+01  0.1059137E+01  0.6977146E-06 -0.1303506E-06  0.1458497E+02  0.3032191E+01
  0.1839192E+02  0.5123351E+01  0.9238231E+00  0.7899465E-06 -0.1599536E-04  0.1465877E+02  0.2644938E+01
  0.1859293E+02  0.5149011E+01  0.7996885E+00  0.3597474E-06 -0.1345611E-04  0.1473218E+02  0.2289671E+01
  0.1879394E+02  0.5173476E+01  0.7087722E+00  0.1817656E-06 -0.1842806E-04  0.1480215E+02  0.2029444E+01
  0.1899495E+02  0.5197463E+01  0.6142615E+00 -0.2513278E-06  0.9680462E-05  0.1487076E+02  0.1758945E+01
  0.1919596E+02  0.5220037E+01  0.5456563E+00  0.1205152E-05 -0.1939139E-04  0.1493536E+02  0.1562563E+01
  0.1939697E+02  0.5241779E+01  0.4861034E+00  0.3102653E-06  0.3468701E-04  0.1499757E+02  0.1392089E+01
  0.1959798E+02  0.5262240E+01  0.4330818E+00  0.1421364E-05 -0.1436984E-04  0.1505616E+02  0.1240306E+01
  0.1979899E+02  0.5281590E+01  0.3907481E+00  0.1273625E-05 -0.3159213E-05  0.1511148E+02  0.1119111E+01
  0.2000000E+02  0.5300601E+01  0.3608220E+00  0.1336820E-05  0.2860490E-05  0.1516586E+02  0.1033421E+01
Zone t="Motion of body    1 in DoF   2",I=   100,F=POINT
  0.1000000E+00  0.2200541E-05 -0.1381717E-10  0.9953152E+01  0.1345442E-05  0.6784103E-05 -0.3792122E-10
  0.3010101E+00  0.2399584E-05 -0.2217497E-09  0.9961746E+01  0.3313726E-04  0.6557714E-05 -0.6323688E-09
  0.5020202E+00  0.2426072E-05  0.4553598E-08  0.1003525E+02  0.1223782E-03  0.6774311E-05  0.1303948E-07
  0.7030303E+00  0.2111945E-05 -0.4290825E-08  0.1000443E+02  0.2181239E-03  0.6450422E-05 -0.1246224E-07
  0.9040404E+00  0.1875568E-05  0.9077922E-08  0.1004044E+02  0.1731992E-03  0.5172266E-05  0.2607726E-07
  0.1105051E+01  0.2117923E-05 -0.1798730E-07  0.1009192E+02 -0.2184439E-03  0.6132118E-05 -0.5190577E-07
  0.1306061E+01  0.3061241E-05  0.2210822E-07  0.1015501E+02 -0.1116672E-02  0.9045030E-05  0.6183473E-07
  0.1507071E+01  0.1807404E-05 -0.8012648E-09  0.1022254E+02 -0.2440343E-02  0.5198352E-05 -0.1136868E-08
  0.1708081E+01  0.2456874E-05  0.5456968E-11  0.1031394E+02 -0.3579872E-02  0.6611913E-05  0.2179149E-08
  0.1909091E+01  0.1774502E-06 -0.4357935E-07  0.1041312E+02 -0.2994556E-02  0.2373320E-06 -0.1302105E-06
  0.2110101E+01  0.3528705E-06 -0.1978406E-06  0.1054285E+02  0.2314410E-02  0.8010756E-06 -0.5663314E-06
  0.2311111E+01  0.7753261E-06  0.9957148E-07  0.1068348E+02  0.1740004E-01  0.1567174E-05  0.2549496E-06
  0.2512121E+01  0.4395023E-06 -0.1266017E-07  0.1085267E+02  0.5028878E-01  0.1137034E-05 -0.1018343E-06
  0.2713131E+01 -0.5447185E-05  0.7946801E-07  0.1105288E+02  0.1129032E+00 -0.1597211E-04  0.4164758E-06
  0.2914141E+01 -0.1115040E-05 -0.2008455E-06  0.1127391E+02  0.2219154E+00 -0.3187564E-05 -0.6784685E-06
  0.3115151E+01 -0.2146946E-05 -0.4204921E-06  0.1153588E+02  0.4008977E+00 -0.6330295E-05 -0.1329230E-05
  0.3316161E+01 -0.1259303E-05 -0.8044881E-06  0.1183419E+02  0.6819434E+00 -0.3651809E-05 -0.2496759E-05
  0.3517171E+01 -0.1065925E-05 -0.3682799E-06  0.1217243E+02  0.1106872E+01 -0.2712011E-05 -0.7424969E-06
  0.3718182E+01 -0.1234856E-06 -0.4690373E-06  0.1255246E+02  0.1731164E+01 -0.3914970E-06 -0.1994660E-05
  0.3919192E+01 -0.1951428E-05 -0.8336501E-06  0.1296276E+02  0.2621353E+01 -0.5096716E-05 -0.2247514E-05
  0.4120202E+01  0.2080681E-05 -0.1293374E-06  0.1342430E+02  0.3873461E+01  0.5720120E-05  0.4656613E-08
  0.4321212E+01  0.1455430E-05  0.9065261E-06  0.1393096E+02  0.5607899E+01  0.4323832E-05  0.2877787E-06
  0.4522222E+01  0.3379534E-05 -0.2849614E-05  0.1445585E+02  0.7947696E+01  0.1008876E-04 -0.8354429E-05
  0.4723232E+01  0.7746181E-06 -0.1748558E-05  0.1500310E+02  0.1107007E+02  0.1571517E-05 -0.5274080E-05
  0.4924242E+01 -0.6477613E-05  0.4429603E-05  0.1555724E+02  0.1519027E+02 -0.1935180E-04  0.1342688E-04
  0.5125252E+01  0.1293112E-04  0.1169019E-04  0.1606896E+02  0.2050436E+02  0.3736919E-04  0.3196904E-04
  0.5326262E+01 -0.6561515E-05 -0.2352055E-05  0.1651172E+02  0.2727499E+02 -0.1910079E-04 -0.4372559E-05
  0.5527273E+01  0.7000160E-05  0.1236866E-04  0.1683460E+02  0.3576168E+02  0.2013155E-04  0.2698228E-04
  0.5728283E+01  0.1564538E-05  0.1118844E-04  0.1693066E+02  0.4599173E+02  0.4274312E-05  0.3401097E-04
  0.5929293E+01  0.1865380E-05  0.1480128E-04  0.1670096E+02  0.5779455E+02  0.5355508E-05  0.3738701E-04
  0.6130303E+01  0.5854889E-05  0.2439762E-04  0.1608427E+02  0.7097535E+02  0.1645063E-04  0.6778631E-04
  0.6331313E+01  0.4211558E-05  0.3385125E-04  0.1500160E+02  0.8478619E+02  0.1155130E-04  0.1009041E-03
  0.6532323E+01  0.1857706E-06  0.2290658E-04  0.1342926E+02  0.9824015E+02  0.1159961E-05  0.7138820E-04
  0.6733334E+01  0.7845239E-06  0.4749163E-04  0.1141163E+02  0.1098259E+03  0.2193679E-05  0.1404453E-03
  0.6934343E+01 -0.2156951E-06  0.4041599E-04  0.9094341E+01  0.1184986E+03 -0.4351508E-06  0.1247483E-03
  0.7135354E+01 -0.3603850E-05  0.1353110E-04  0.6688200E+01  0.1231901E+03 -0.1042977E-04  0.3662391E-04
  0.7336363E+01 -0.4011750E-05 -0.3523356E-04  0.4382123E+01  0.1238961E+03 -0.1102501E-04 -0.1025936E-03
  0.7537374E+01 -0.6603944E-05 -0.1008192E-04  0.2339832E+01  0.1209418E+03 -0.1908913E-04 -0.2841000E-04
  0.7738384E+01  0.2137796E-05 -0.4294515E-04  0.6420195E+00  0.1151130E+03  0.5415797E-05 -0.1206906E-03
  0.7939394E+01 -0.4180714E-05 -0.1622620E-04 -0.6679157E+00  0.1073359E+03 -0.1165861E-04 -0.5153148E-04
  0.8140405E+01 -0.8752166E-06 -0.2826494E-04 -0.1633141E+01  0.9851655E+02 -0.1744484E-05 -0.7839827E-04
  0.8341414E+01  0.1612344E-05  0.1108320E-04 -0.2285400E+01  0.8922748E+02  0.4920211E-05  0.3441935E-04
  0.8542424E+01 -0.4860473E-05 -0.1631980E-04 -0.2692209E+01  0.7987318E+02 -0.1383941E-04 -0.4687579E-04
  0.8743435E+01  0.3307559E-05 -0.7075490E-05 -0.2884747E+01  0.7078940E+02  0.9684506E-05 -0.1900364E-04
  0.8944445E+01  0.1236357E-05  0.7600524E-05 -0.2899889E+01  0.6224540E+02  0.4168253E-05  0.1982460E-04
  0.9145455E+01  0.8316821E-06 -0.1857826E-04 -0.2792430E+01  0.5437707E+02  0.3000858E-05 -0.4976010E-04
  0.9346465E+01  0.2086553E-06 -0.7625320E-05 -0.2601961E+01  0.4721112E+02  0.8031336E-06 -0.1944136E-04
  0.9547475E+01  0.1254448E-06 -0.4224246E-05 -0.2351924E+01  0.4072258E+02  0.1861187E-06 -0.1248252E-04
  0.9748485E+01  0.2151451E-05  0.3016321E-06 -0.2061973E+01  0.3485883E+02  0.6555237E-05  0.9313226E-06
  0.9949495E+01  0.2165833E-05 -0.1019367E-04 -0.1744932E+01  0.2962147E+02  0.5845820E-05 -0.2718321E-04
  0.1015051E+02  0.1104594E-05 -0.1367892E-04 -0.1410336E+01  0.2497270E+02  0.3381219E-05 -0.3896258E-04
  0.1035151E+02 -0.1533894E-05  0.9541225E-05 -0.1066717E+01  0.2092586E+02 -0.4245132E-05  0.2844422E-04
  0.1055252E+02  0.2086194E-05  0.1540995E-04 -0.7261031E+00  0.1741676E+02  0.6036354E-05  0.4303316E-04
  0.1075354E+02  0.1573893E-05  0.1763820E-04 -0.3941505E+00  0.1433098E+02  0.4521533E-05  0.4902331E-04
  0.1095455E+02 -0.1185902E-05 -0.4000694E-04 -0.7409570E-01  0.1167346E+02 -0.3403739E-05 -0.1139891E-03
  0.1115556E+02 -0.3780204E-06 -0.1050221E-04  0.2326617E+00  0.9373337E+01 -0.6264719E-06 -0.2979708E-04
  0.1135657E+02 -0.5086918E-06  0.1694279E-05  0.5250431E+00  0.7422711E+01 -0.9125781E-06  0.4440895E-05
  0.1155758E+02  0.4448077E-07 -0.1598569E-04  0.8023146E+00  0.5775874E+01  0.1489139E-06 -0.4507147E-04
  0.1175859E+02 -0.2894099E-06  0.3375742E-04  0.1062203E+01  0.4416602E+01 -0.8867634E-06  0.9689131E-04
  0.1195960E+02  0.1203907E-06 -0.1853854E-04  0.1304271E+01  0.3320580E+01  0.3993296E-06 -0.5367683E-04
  0.1216061E+02  0.1083374E-05  0.5149544E-05  0.1528607E+01  0.2420238E+01  0.3378326E-05  0.1552419E-04
  0.1236162E+02 -0.2077873E-06 -0.1400777E-04  0.1736261E+01  0.1697652E+01 -0.6177868E-06 -0.4031282E-04
  0.1256263E+02 -0.1309954E-05 -0.1679960E-04  0.1927382E+01  0.1135117E+01 -0.4101410E-05 -0.4790613E-04
  0.1276364E+02  0.3397482E-05  0.5209799E-04  0.2103494E+01  0.7022209E+00  0.9621992E-05  0.1488937E-03
  0.1296465E+02 -0.1487283E-05  0.2833447E-05  0.2265415E+01  0.3765815E+00 -0.4503226E-05  0.7872441E-05
  0.1316566E+02 -0.1250661E-06  0.4840764E-04  0.2413354E+01  0.1389386E+00 -0.5693056E-06  0.1380527E-03
  0.1336667E+02 -0.6415673E-06 -0.3482846E-04  0.2549098E+01 -0.2361697E-01 -0.1564900E-05 -0.9968168E-04
  0.1356768E+02  0.3067094E-05 -0.1287471E-04  0.2672682E+01 -0.1232168E+00  0.8678911E-05 -0.3697388E-04
  0.1376869E+02  0.2027054E-05 -0.4601449E-04  0.2784241E+01 -0.1705587E+00  0.5867687E-05 -0.1313618E-03
  0.1396970E+02 -0.1230679E-06  0.9175674E-06  0.2885993E+01 -0.1845893E+00 -0.2573359E-06  0.2515077E-05
  0.1417071E+02  0.2410671E-06  0.5844305E-04  0.2978133E+01 -0.1734438E+00  0.7237269E-06  0.1673024E-03
  0.1437172E+02  0.1492919E-05  0.8205284E-06  0.3061790E+01 -0.1414957E+00  0.4309103E-05  0.2261060E-05
  0.1457273E+02  0.1379531E-05 -0.1354806E-05  0.3138461E+01 -0.9816769E-01  0.3902258E-05 -0.3891684E-05
  0.1477374E+02  0.4628958E-05 -0.8000415E-04  0.3208207E+01 -0.5259907E-01  0.1305993E-04 -0.2286885E-03
  0.1497475E+02 -0.6538958E-06 -0.1687722E-04  0.3271787E+01 -0.9722812E-02 -0.1843894E-05 -0.4835426E-04
  0.1517576E+02 -0.2182039E-05 -0.4231352E-04  0.3329570E+01  0.2782935E-01 -0.6175203E-05 -0.1210640E-03
  0.1537677E+02 -0.3036943E-05 -0.2598095E-04  0.3383055E+01  0.5673863E-01 -0.8629081E-05 -0.7432200E-04
  0.1557778E+02 -0.2207035E-05  0.5131511E-04  0.3431225E+01  0.7595632E-01 -0.6110538E-05  0.1467750E-03
  0.1577879E+02 -0.5344596E-05  0.1436477E-03  0.3474524E+01  0.7532364E-01 -0.1522339E-04  0.4107708E-03
  0.1597980E+02 -0.6368275E-05  0.7620227E-05  0.3514071E+01  0.6906939E-01 -0.1841641E-04  0.2169342E-04
  0.1618081E+02 -0.2306778E-05  0.1024594E-03  0.3550400E+01  0.6889068E-01 -0.6607109E-05  0.2930869E-03
  0.1638182E+02 -0.1192961E-05  0.8790894E-06  0.3582149E+01  0.3154014E-01 -0.3591618E-05  0.2482739E-05
  0.1658283E+02  0.7444816E-06  0.3418693E-04  0.3609192E+01 -0.1156994E-01  0.2121570E-05  0.9779165E-04
  0.1678384E+02 -0.4671417E-05 -0.1466667E-04  0.3631446E+01 -0.6241369E-01 -0.1329655E-04 -0.4205144E-04
  0.1698485E+02  0.1731612E-06 -0.6546477E-04  0.3645474E+01 -0.1341365E+00  0.5233218E-06 -0.1872598E-03
  0.1718586E+02 -0.1753844E-05 -0.4023998E-04  0.3649335E+01 -0.2223072E+00 -0.5315941E-05 -0.1152072E-03
  0.1738687E+02  0.1870265E-05  0.4952008E-04  0.3635439E+01 -0.3023865E+00  0.4984946E-05  0.1417429E-03
  0.1758788E+02  0.1199586E-05 -0.1257150E-04  0.3582380E+01 -0.2510114E+00  0.3200450E-05 -0.3605280E-04
  0.1778889E+02 -0.3288889E-06  0.3621230E-04  0.3437059E+01  0.7021289E+00 -0.1120798E-05  0.1032310E-03
  0.1798990E+02 -0.2125229E-05 -0.1976939E-04  0.3178679E+01  0.9941642E+01 -0.5835009E-05 -0.5639158E-04
  0.1819091E+02 -0.1539908E-05 -0.4134771E-04  0.4189826E+01  0.1388615E+02 -0.4230932E-05 -0.1200540E-03
  0.1839192E+02 -0.5230863E-05  0.2075537E-03  0.4250548E+01  0.5806191E+01 -0.1509446E-04  0.5931688E-03
  0.1859293E+02 -0.1489180E-05  0.1401384E-04  0.4200847E+01  0.3374738E+01 -0.4211179E-05  0.4026649E-04
  0.1879394E+02  0.4140767E-06  0.1784467E-03  0.4175254E+01  0.2366313E+01  0.1018442E-05  0.5104910E-03
  0.1899495E+02 -0.1588965E-05 -0.1328132E-04  0.4165716E+01  0.1824064E+01 -0.4599407E-05 -0.3816833E-04
  0.1919596E+02 -0.3873953E-05  0.5603460E-04  0.4164898E+01  0.1490423E+01 -0.1122984E-04  0.1597541E-03
  0.1939697E+02 -0.2819179E-05 -0.2680191E-05  0.4168972E+01  0.1261060E+01 -0.8078997E-05 -0.8002320E-05
  0.1959798E+02 -0.2353067E-05  0.5495080E-04  0.4177412E+01  0.1102313E+01 -0.6551484E-05  0.1571252E-03
  0.1979899E+02 -0.6069428E-05  0.8009557E-04  0.4186782E+01  0.9810558E+00 -0.1720720E-04  0.2288558E-03
  0.2000000E+02 -0.2049841E-05  0.5541362E-04  0.4197432E+01  0.8785399E+00 -0.5960464E-05  0.1581890E-03
Zone t="Motion of body    1 in DoF   3",I=   100,F=POINT
  0.1000000E+00  0.2847345E+02 -0.1012151E-10  0.6594346E-05 -0.1317919E-09  0.8146088E+02 -0.2896555E-10
  0.3010101E+00  0.2848521E+02  0.1042830E-06  0.6129583E-05 -0.4264944E-08  0.8149480E+02  0.2983695E-06
  0.5020202E+00  0.2855504E+02  0.3443980E-05  0.5611828E-05 -0.1742553E-07  0.8169436E+02  0.9853304E-05
  0.7030303E+00  0.2882568E+02  0.3812343E-04  0.3558214E-05 -0.4792528E-07  0.8246877E+02  0.1090723E-03
  0.9040404E+00  0.2897775E+02  0.2203259E-03  0.5382680E-05 -0.8976915E-07  0.8290363E+02  0.6303580E-03
  0.1105051E+01  0.2910485E+02  0.8918925E-03  0.5167127E-05 -0.1486290E-06  0.8326749E+02  0.2551724E-02
  0.1306061E+01  0.2926353E+02  0.2851727E-02  0.7086207E-05 -0.2377036E-06  0.8372128E+02  0.8158851E-02
  0.1507071E+01  0.2944088E+02  0.7701691E-02  0.3860759E-05 -0.2466123E-06  0.8422872E+02  0.2203468E-01
  0.1708081E+01  0.2965062E+02  0.1832062E-01  0.1368020E-05 -0.2191500E-06  0.8482858E+02  0.5241553E-01
  0.1909091E+01  0.2990683E+02  0.3949652E-01 -0.2086473E-05 -0.1294420E-06  0.8556166E+02  0.1130003E+00
  0.2110101E+01  0.3019725E+02  0.7869104E-01 -0.1436198E-05 -0.7906692E-07  0.8639221E+02  0.2251360E+00
  0.2311111E+01  0.3053341E+02  0.1470069E+00 -0.3517982E-06 -0.9164251E-07  0.8735418E+02  0.4205871E+00
  0.2512121E+01  0.3093674E+02  0.2604077E+00 -0.1683121E-06 -0.1545486E-06  0.8850806E+02  0.7450275E+00
  0.2713131E+01  0.3137497E+02  0.4407737E+00 -0.1882121E-04 -0.9741052E-06  0.8976170E+02  0.1261053E+01
  0.2914141E+01  0.3188745E+02  0.7180933E+00 -0.4100306E-06 -0.2120651E-06  0.9122764E+02  0.2054463E+01
  0.3115151E+01  0.3248272E+02  0.1132211E+01 -0.9938210E-05 -0.1333479E-05  0.9293035E+02  0.3239240E+01
  0.3316161E+01  0.3314290E+02  0.1734586E+01 -0.5850534E-05 -0.1185137E-05  0.9481895E+02  0.4962605E+01
  0.3517171E+01  0.3388090E+02  0.2591946E+01 -0.6155910E-05 -0.3040535E-05  0.9693046E+02  0.7415469E+01
  0.3718182E+01  0.3473904E+02  0.3793169E+01 -0.4382863E-05 -0.7136841E-06  0.9938501E+02  0.1085211E+02
  0.3919192E+01  0.3569376E+02  0.5447239E+01 -0.9079890E-05 -0.6256509E-05  0.1021165E+03  0.1558433E+02
  0.4120202E+01  0.3675092E+02  0.7695536E+01 -0.4819132E-06 -0.9749783E-06  0.1051403E+03  0.2201651E+02
  0.4321212E+01  0.3793111E+02  0.1072255E+02 -0.3788472E-05 -0.9114854E-05  0.1085166E+03  0.3067653E+02
  0.4522222E+01  0.3925514E+02  0.1477062E+02  0.8893880E-05  0.5729613E-04  0.1123043E+03  0.4225756E+02
  0.4723232E+01  0.4075130E+02  0.2016745E+02  0.3710911E-06  0.4778709E-04  0.1165844E+03  0.5769727E+02
  0.4924242E+01  0.4241556E+02  0.2733997E+02 -0.1757586E-04 -0.6360607E-04  0.1213447E+03  0.7821690E+02
  0.5125252E+01  0.4424371E+02  0.3685947E+02  0.2502872E-04  0.3357045E-04  0.1265743E+03  0.1054505E+03
  0.5326262E+01  0.4624478E+02  0.4953822E+02 -0.1030280E-04 -0.2775332E-03  0.1322979E+03  0.1417225E+03
  0.5527273E+01  0.4841481E+02  0.6654048E+02  0.1892545E-04 -0.7618731E-04  0.1385058E+03  0.1903622E+03
  0.5728283E+01  0.5079087E+02  0.8978095E+02  0.1270035E-04 -0.1362516E-03  0.1453020E+03  0.2568478E+03
  0.5929293E+01  0.5320745E+02  0.1218282E+03  0.1215356E-04 -0.3829226E-04  0.1522149E+03  0.3485268E+03
  0.6130303E+01  0.5536961E+02  0.1667147E+03  0.6891750E-05  0.6541051E-04  0.1583989E+03  0.4769331E+03
  0.6331313E+01  0.5653073E+02  0.2300013E+03  0.3006092E-05  0.1061196E-03  0.1617188E+03  0.6579739E+03
  0.6532323E+01  0.5502014E+02  0.3179062E+03  0.3981164E-05  0.7200800E-04  0.1573952E+03  0.9094366E+03
  0.6733334E+01  0.4751751E+02  0.4297444E+03 -0.6695010E-05  0.1187641E-03  0.1359312E+03  0.1229358E+04
  0.6934343E+01  0.2989630E+02  0.5361769E+03 -0.6994916E-05  0.5323254E-04  0.8552113E+02  0.1533802E+04
  0.7135354E+01  0.2989126E+01  0.5677205E+03 -0.1471443E-04  0.9336881E-04  0.8550215E+01  0.1624000E+04
  0.7336363E+01 -0.2050473E+02  0.4754162E+03  0.9867139E-05 -0.5855225E-05 -0.5865358E+02  0.1359925E+04
  0.7537374E+01 -0.2959454E+02  0.3253094E+03 -0.2067157E-04 -0.1463469E-04 -0.8465199E+02  0.9305086E+03
  0.7738384E+01 -0.2787144E+02  0.1984523E+03 -0.3733049E-05 -0.1063670E-03 -0.7971951E+02  0.5676292E+03
  0.7939394E+01 -0.2219445E+02  0.1151990E+03 -0.5952004E-06 -0.3496092E-04 -0.6347793E+02  0.3294814E+03
  0.8140405E+01 -0.1609002E+02  0.6445380E+02  0.5065960E-06 -0.5277013E-04 -0.4601410E+02  0.1843305E+03
  0.8341414E+01 -0.1068900E+02  0.3423108E+02 -0.1279067E-05  0.6658025E-04 -0.3056333E+02  0.9788518E+02
  0.8542424E+01 -0.6176774E+01  0.1645393E+02 -0.2403744E-05  0.1103338E-04 -0.1765532E+02  0.4704121E+02
  0.8743435E+01 -0.2522308E+01  0.6489820E+01  0.5825190E-05 -0.4071242E-04 -0.7201090E+01  0.1854595E+02
  0.8944445E+01  0.4776412E+00  0.1274976E+01  0.4595574E-05  0.7609255E-05  0.1380444E+01  0.3635728E+01
  0.9145455E+01  0.2905545E+01 -0.7364387E+00  0.6620869E-05 -0.3646099E-04  0.8325586E+01 -0.2111403E+01
  0.9346465E+01  0.4864268E+01 -0.6686990E+00  0.5683316E-05 -0.2216809E-04  0.1392857E+02 -0.1911568E+01
  0.9547475E+01  0.6449613E+01  0.6960478E+00  0.2310291E-05  0.3955857E-04  0.1846335E+02  0.1997877E+01
  0.9748485E+01  0.7738595E+01  0.2907822E+01  0.1734918E-05  0.1167686E-04  0.2215030E+02  0.8329805E+01
  0.9949495E+01  0.8764411E+01  0.5589972E+01  0.4977540E-05  0.6656745E-05  0.2508446E+02  0.1600669E+02
  0.1015051E+02  0.9593160E+01  0.8496786E+01  0.3815754E-05 -0.7758732E-05  0.2745493E+02  0.2432575E+02
  0.1035151E+02  0.1025160E+02  0.1137623E+02  0.2967922E-05 -0.8046511E-05  0.2933806E+02  0.3256594E+02
  0.1055252E+02  0.1077079E+02  0.1410626E+02  0.1443514E-05  0.4164525E-05  0.3082291E+02  0.4037816E+02
  0.1075354E+02  0.1117996E+02  0.1669123E+02  0.2299566E-05  0.1123291E-04  0.3199310E+02  0.4777526E+02
  0.1095455E+02  0.1149896E+02  0.1896528E+02 -0.1373534E-05 -0.3351283E-04  0.3290522E+02  0.5428229E+02
  0.1115556E+02  0.1174856E+02  0.2096412E+02  0.3333726E-05  0.1136772E-04  0.3361901E+02  0.6000187E+02
  0.1135657E+02  0.1194290E+02  0.2268427E+02 -0.2296207E-08  0.2385932E-05  0.3417464E+02  0.6492390E+02
  0.1155758E+02  0.1209669E+02  0.2413267E+02  0.2818405E-05 -0.2106687E-04  0.3461426E+02  0.6906793E+02
  0.1175859E+02  0.1221675E+02  0.2528042E+02 -0.7337421E-06 -0.3944908E-05  0.3495740E+02  0.7235164E+02
  0.1195960E+02  0.1231111E+02  0.2601916E+02  0.4768282E-05  0.2286723E-04  0.3522715E+02  0.7446492E+02
  0.1216061E+02  0.1238804E+02  0.2647783E+02  0.1156743E-05  0.1665845E-05  0.3544685E+02  0.7577728E+02
  0.1236162E+02  0.1245131E+02  0.2662879E+02  0.1458278E-05 -0.1393002E-04  0.3562774E+02  0.7620884E+02
  0.1256263E+02  0.1250919E+02  0.2659342E+02  0.2486170E-05  0.3321422E-04  0.3579303E+02  0.7610717E+02
  0.1276364E+02  0.1256352E+02  0.2633624E+02 -0.2949612E-05 -0.1586182E-04  0.3594827E+02  0.7537125E+02
  0.1296465E+02  0.1261470E+02  0.2592589E+02  0.9192075E-06  0.1244753E-04  0.3609452E+02  0.7419642E+02
  0.1316566E+02  0.1266555E+02  0.2532350E+02  0.2901138E-05 -0.2146568E-04  0.3623987E+02  0.7247253E+02
  0.1336667E+02  0.1271940E+02  0.2459289E+02 -0.4998484E-05 -0.4496324E-04  0.3639371E+02  0.7038134E+02
  0.1356768E+02  0.1277282E+02  0.2380489E+02 -0.1213603E-05 -0.2755725E-04  0.3654642E+02  0.6812619E+02
  0.1376869E+02  0.1283261E+02  0.2287092E+02  0.1534630E-05  0.4171640E-04  0.3671746E+02  0.6545363E+02
  0.1396970E+02  0.1289701E+02  0.2188865E+02  0.2945629E-05  0.1089138E-05  0.3690163E+02  0.6264238E+02
  0.1417071E+02  0.1296229E+02  0.2080810E+02  0.4810826E-07 -0.1326540E-04  0.3708825E+02  0.5955024E+02
  0.1437172E+02  0.1303093E+02  0.1971314E+02 -0.2017948E-05  0.3836220E-04  0.3728453E+02  0.5641651E+02
  0.1457273E+02  0.1310252E+02  0.1861136E+02  0.2272589E-05  0.3225054E-04  0.3748930E+02  0.5326363E+02
  0.1477374E+02  0.1317708E+02  0.1749754E+02  0.2279997E-05 -0.1435139E-04  0.3770256E+02  0.5007622E+02
  0.1497475E+02  0.1325348E+02  0.1637779E+02  0.4104729E-06  0.4051218E-04  0.3792106E+02  0.4687183E+02
  0.1517576E+02  0.1333231E+02  0.1525198E+02  0.1382032E-05  0.3277388E-04  0.3814648E+02  0.4365014E+02
  0.1537677E+02  0.1341250E+02  0.1415891E+02  0.1492367E-05 -0.1625957E-04  0.3837589E+02  0.4052215E+02