VARIABLES="w (rad/s)"
"abs(F   1   1)" "angle(F   1   1)"
"abs(F   1   2)" "angle(F   1   2)"
"abs(F   1   3)" "angle(F   1   3)"
Zone t="FKforce - beta =   0.000",I=    32,F=POINT
  0.1000000E+00  0.5207596E+02 -0.1570798E+01  0.1021606E+06 -0.7329475E-11  0.2202535E+03 -0.1570778E+01
  0.2000000E+00  0.2080610E+03 -0.1570796E+01  0.1020040E+06 -0.7632894E-11  0.8801115E+03 -0.1570798E+01
  0.3000000E+00  0.4672249E+03 -0.1570796E+01  0.1017419E+06 -0.1351830E-09  0.1976856E+04 -0.1570796E+01
  0.4000000E+00  0.8283425E+03 -0.1570797E+01  0.1013731E+06 -0.1289131E-09  0.3505909E+04 -0.1570794E+01
  0.5000000E+00  0.1289680E+04 -0.1570796E+01  0.1008958E+06  0.1971643E-09  0.5460764E+04 -0.1570796E+01
  0.6000001E+00  0.1848982E+04 -0.1570795E+01  0.1003077E+06 -0.1114159E-09  0.7832894E+04 -0.1570797E+01
  0.7000000E+00  0.2503441E+04 -0.1570796E+01  0.9960530E+05 -0.2674885E-09  0.1061163E+05 -0.1570796E+01
  0.8000001E+00  0.3249697E+04 -0.1570796E+01  0.9878588E+05 -0.1377197E-08  0.1378407E+05 -0.1570796E+01
  0.9000000E+00  0.4083770E+04 -0.1570796E+01  0.9784545E+05 -0.1894523E-09  0.1733479E+05 -0.1570796E+01
  0.1000000E+01  0.5001054E+04 -0.1570796E+01  0.9677997E+05 -0.4760736E-09  0.2124580E+05 -0.1570796E+01
  0.1100000E+01  0.5996312E+04 -0.1570796E+01  0.9558498E+05  0.1592617E-08  0.2549634E+05 -0.1570796E+01
  0.1200000E+01  0.7063561E+04 -0.1570796E+01  0.9425595E+05  0.1752930E-08  0.3006255E+05 -0.1570796E+01
  0.1300000E+01  0.8196127E+04 -0.1570796E+01  0.9278814E+05  0.7965432E-10  0.3491754E+05 -0.1570796E+01
  0.1400000E+01  0.9386544E+04 -0.1570796E+01  0.9117665E+05  0.3569350E-09  0.4003085E+05 -0.1570796E+01
  0.1500000E+01  0.1062659E+05 -0.1570796E+01  0.8941696E+05 -0.2106431E-08  0.4536846E+05 -0.1570796E+01
  0.1600000E+01  0.1190719E+05 -0.1570796E+01  0.8750438E+05 -0.5674079E-08  0.5089279E+05 -0.1570796E+01
  0.1700000E+01  0.1321846E+05 -0.1570796E+01  0.8543491E+05  0.1300441E-08  0.5656214E+05 -0.1570796E+01
  0.1800000E+01  0.1454966E+05 -0.1570796E+01  0.8320470E+05 -0.5170698E-08  0.6233093E+05 -0.1570796E+01
  0.1900000E+01  0.1588922E+05 -0.1570796E+01  0.8081073E+05  0.6505485E-09  0.6814977E+05 -0.1570796E+01
  0.2000000E+01  0.1722472E+05 -0.1570796E+01  0.7825086E+05  0.3656219E-09  0.7396482E+05 -0.1570796E+01
  0.2100000E+01  0.1854297E+05 -0.1570796E+01  0.7552391E+05 -0.1133313E-08  0.7971889E+05 -0.1570796E+01
  0.2200000E+01  0.1983000E+05 -0.1570796E+01  0.7263012E+05 -0.1309774E-07  0.8535066E+05 -0.1570796E+01
  0.2300000E+01  0.2107128E+05 -0.1570796E+01  0.6957080E+05  0.9074675E-08  0.9079550E+05 -0.1570796E+01
  0.2400000E+01  0.2225152E+05 -0.1570796E+01  0.6634926E+05 -0.5415234E-08  0.9598604E+05 -0.1570796E+01
  0.2500000E+01  0.2335517E+05 -0.1570796E+01  0.6297066E+05 -0.1389530E-08  0.1008522E+06 -0.1570796E+01
  0.2600000E+01  0.2436627E+05 -0.1570796E+01  0.5944214E+05 -0.1793289E-07  0.1053221E+06 -0.1570796E+01
  0.2700000E+01  0.2526880E+05 -0.1570796E+01  0.5577324E+05 -0.3822940E-07  0.1093231E+06 -0.1570796E+01
  0.2800000E+01  0.2604690E+05 -0.1570796E+01  0.5197585E+05  0.7798075E-10  0.1127825E+06 -0.1570796E+01
  0.2900000E+01  0.2668496E+05 -0.1570796E+01  0.4806462E+05 -0.9806662E-08  0.1156290E+06 -0.1570796E+01
  0.3000000E+01  0.2716807E+05 -0.1570796E+01  0.4405707E+05 -0.2408697E-07  0.1177934E+06 -0.1570796E+01
  0.3100000E+01  0.2748232E+05 -0.1570796E+01  0.3997321E+05 -0.2049388E-07  0.1192110E+06 -0.1570796E+01
  0.3200000E+01  0.2761504E+05 -0.1570796E+01  0.3583614E+05  0.2232089E-07  0.1198223E+06 -0.1570796E+01
