VARIABLES="w (rad/s)"
"abs(F   1   1)" "angle(F   1   1)"
"abs(F   1   2)" "angle(F   1   2)"
"abs(F   1   3)" "angle(F   1   3)"
Zone t="Diffraction force - beta =   0.000 deg",I=   100,F=POINT
  0.1000000E+00  0.5832412E-01 -0.1570796E+01  0.5444244E-01 -0.3141175E+01  0.1725880E+00 -0.1570796E+01
  0.3010101E+00  0.5495415E+00 -0.1570796E+01  0.4901431E+00 -0.3137908E+01  0.1626149E+01 -0.1570796E+01
  0.5020202E+00  0.1530674E+01 -0.1570796E+01  0.1369959E+01 -0.3131474E+01  0.4529417E+01 -0.1570796E+01
  0.7030303E+00  0.3009081E+01 -0.1570795E+01  0.2720128E+01 -0.3122221E+01  0.8904184E+01 -0.1570795E+01
  0.9040404E+00  0.4980697E+01 -0.1570790E+01  0.4521235E+01 -0.3110215E+01  0.1473840E+02 -0.1570790E+01
  0.1105051E+01  0.7457662E+01 -0.1570776E+01  0.6785038E+01 -0.3095813E+01  0.2206796E+02 -0.1570776E+01
  0.1306061E+01  0.1040967E+02 -0.1570741E+01  0.9502730E+01 -0.3079280E+01  0.3080323E+02 -0.1570741E+01
  0.1507071E+01  0.1380405E+02 -0.1570667E+01  0.1266372E+02 -0.3060920E+01  0.4084745E+02 -0.1570667E+01
  0.1708081E+01  0.1777775E+02 -0.1570527E+01  0.1624753E+02 -0.3041018E+01  0.5260597E+02 -0.1570527E+01
  0.1909091E+01  0.2210265E+02 -0.1570277E+01  0.2022257E+02 -0.3019816E+01  0.6540381E+02 -0.1570277E+01
  0.2110101E+01  0.2706742E+02 -0.1569867E+01  0.2455677E+02 -0.2997596E+01  0.8009498E+02 -0.1569867E+01
  0.2311111E+01  0.3232918E+02 -0.1569216E+01  0.2922142E+02 -0.2974673E+01  0.9566479E+02 -0.1569216E+01
  0.2512121E+01  0.3822070E+02 -0.1568241E+01  0.3414404E+02 -0.2951103E+01  0.1130983E+03 -0.1568241E+01
  0.2713131E+01  0.4464357E+02 -0.1566830E+01  0.3930300E+02 -0.2927287E+01  0.1321041E+03 -0.1566830E+01
  0.2914141E+01  0.5131181E+02 -0.1564828E+01  0.4462617E+02 -0.2903267E+01  0.1518357E+03 -0.1564828E+01
  0.3115151E+01  0.5869876E+02 -0.1562109E+01  0.5007191E+02 -0.2879307E+01  0.1736939E+03 -0.1562109E+01
  0.3316161E+01  0.6669612E+02 -0.1558495E+01  0.5556385E+02 -0.2855436E+01  0.1973586E+03 -0.1558494E+01
  0.3517171E+01  0.7504520E+02 -0.1553753E+01  0.6108745E+02 -0.2832027E+01  0.2220639E+03 -0.1553753E+01
  0.3718182E+01  0.8370433E+02 -0.1547647E+01  0.6654189E+02 -0.2808852E+01  0.2476864E+03 -0.1547646E+01
  0.3919192E+01  0.9324364E+02 -0.1540045E+01  0.7191370E+02 -0.2786287E+01  0.2759136E+03 -0.1540045E+01
  0.4120202E+01  0.1034061E+03 -0.1530669E+01  0.7714128E+02 -0.2764349E+01  0.3059844E+03 -0.1530669E+01
  0.4321212E+01  0.1139882E+03 -0.1519211E+01  0.8215956E+02 -0.2742948E+01  0.3372971E+03 -0.1519211E+01
  0.4522222E+01  0.1247728E+03 -0.1505328E+01  0.8697453E+02 -0.2722403E+01  0.3692086E+03 -0.1505327E+01
  0.4723232E+01  0.1359726E+03 -0.1488847E+01  0.9152338E+02 -0.2702554E+01  0.4023493E+03 -0.1488846E+01
  0.4924242E+01  0.1480032E+03 -0.1469752E+01  0.9574482E+02 -0.2683336E+01  0.4379474E+03 -0.1469751E+01
  0.5125252E+01  0.1604539E+03 -0.1447687E+01  0.9964381E+02 -0.2665001E+01  0.4747885E+03 -0.1447685E+01
  0.5326262E+01  0.1730806E+03 -0.1422351E+01  0.1032124E+03 -0.2647678E+01  0.5121503E+03 -0.1422349E+01
  0.5527273E+01  0.1855910E+03 -0.1393435E+01  0.1063959E+03 -0.2631110E+01  0.5491687E+03 -0.1393433E+01
  0.5728283E+01  0.1977037E+03 -0.1360670E+01  0.1091786E+03 -0.2615200E+01  0.5850084E+03 -0.1360667E+01
  0.5929293E+01  0.2095372E+03 -0.1324330E+01  0.1115770E+03 -0.2600142E+01  0.6200240E+03 -0.1324327E+01
  0.6130303E+01  0.2211585E+03 -0.1284768E+01  0.1135771E+03 -0.2586048E+01  0.6544121E+03 -0.1284765E+01
  0.6331313E+01  0.2320209E+03 -0.1241766E+01  0.1151382E+03 -0.2572690E+01  0.6865512E+03 -0.1241762E+01
  0.6532323E+01  0.2417186E+03 -0.1195329E+01  0.1162649E+03 -0.2560031E+01  0.7152461E+03 -0.1195324E+01
  0.6733334E+01  0.2498729E+03 -0.1145631E+01  0.1169742E+03 -0.2548129E+01  0.7393753E+03 -0.1145626E+01
  0.6934343E+01  0.2564529E+03 -0.1093601E+01  0.1172913E+03 -0.2537213E+01  0.7588441E+03 -0.1093596E+01
  0.7135354E+01  0.2611995E+03 -0.1039543E+01  0.1171913E+03 -0.2527117E+01  0.7728874E+03 -0.1039537E+01
  0.7336363E+01  0.2638285E+03 -0.9837126E+00  0.1166770E+03 -0.2517752E+01  0.7806661E+03 -0.9837044E+00
  0.7537374E+01  0.2641392E+03 -0.9265693E+00  0.1157608E+03 -0.2509052E+01  0.7815834E+03 -0.9265607E+00
  0.7738384E+01  0.2622546E+03 -0.8691140E+00  0.1144642E+03 -0.2501163E+01  0.7760045E+03 -0.8691053E+00
  0.7939394E+01  0.2580348E+03 -0.8115368E+00  0.1128161E+03 -0.2494169E+01  0.7635187E+03 -0.8115255E+00
  0.8140405E+01  0.2515624E+03 -0.7542221E+00  0.1108414E+03 -0.2488037E+01  0.7443655E+03 -0.7542090E+00
  0.8341414E+01  0.2430168E+03 -0.6975941E+00  0.1085324E+03 -0.2482662E+01  0.7190778E+03 -0.6975792E+00
  0.8542424E+01  0.2326783E+03 -0.6420919E+00  0.1059072E+03 -0.2478013E+01  0.6884855E+03 -0.6420752E+00
  0.8743435E+01  0.2206930E+03 -0.5875408E+00  0.1029999E+03 -0.2474116E+01  0.6530214E+03 -0.5875213E+00
  0.8944445E+01  0.2073416E+03 -0.5339662E+00  0.9984609E+02 -0.2471047E+01  0.6135142E+03 -0.5339454E+00
  0.9145455E+01  0.1929174E+03 -0.4813223E+00  0.9647134E+02 -0.2468899E+01  0.5708317E+03 -0.4812997E+00
  0.9346465E+01  0.1775445E+03 -0.4291706E+00  0.9291131E+02 -0.2467651E+01  0.5253440E+03 -0.4291436E+00
  0.9547475E+01  0.1614807E+03 -0.3768844E+00  0.8918970E+02 -0.2467117E+01  0.4778115E+03 -0.3768534E+00
  0.9748485E+01  0.1449945E+03 -0.3237970E+00  0.8532419E+02 -0.2467362E+01  0.4290294E+03 -0.3237610E+00
  0.9949495E+01  0.1281966E+03 -0.2685803E+00  0.8136124E+02 -0.2468240E+01  0.3793246E+03 -0.2685389E+00
  0.1015051E+02  0.1112207E+03 -0.2091499E+00  0.7733796E+02 -0.2469858E+01  0.3290938E+03 -0.2091012E+00
  0.1035151E+02  0.9430847E+02 -0.1423185E+00  0.7329181E+02 -0.2472401E+01  0.2790522E+03 -0.1422593E+00
  0.1055252E+02  0.7759367E+02 -0.6200988E-01  0.6927242E+02 -0.2475231E+01  0.2295951E+03 -0.6193718E-01
  0.1075354E+02  0.6133590E+02  0.4343088E-01  0.6532475E+02 -0.2478896E+01  0.1814905E+03  0.4352263E-01
  0.1095455E+02  0.4594859E+02  0.1988770E+00  0.6150440E+02 -0.2482470E+01  0.1359627E+03  0.1989962E+00
  0.1115556E+02  0.3231812E+02  0.4660682E+00  0.5787791E+02 -0.2485570E+01  0.9563478E+02  0.4662213E+00
  0.1135657E+02  0.2300826E+02  0.9758042E+00  0.5456559E+02 -0.2488238E+01  0.6809344E+02  0.9759368E+00
  0.1155758E+02  0.2294033E+02  0.1692689E+01  0.5168822E+02 -0.2489235E+01  0.6789473E+02  0.1692660E+01
  0.1175859E+02  0.3147203E+02  0.2183387E+01  0.4949221E+02 -0.2489993E+01  0.9313632E+02  0.2183290E+01
  0.1195960E+02  0.4328280E+02  0.2435544E+01  0.4833587E+02 -0.2492400E+01  0.1280804E+03  0.2435454E+01
  0.1216061E+02  0.5581332E+02  0.2578667E+01  0.4904926E+02 -0.2502908E+01  0.1651550E+03  0.2578592E+01
  0.1236162E+02  0.6830165E+02  0.2670460E+01  0.5303477E+02 -0.2553095E+01  0.2021054E+03  0.2670398E+01
  0.1256263E+02  0.8036982E+02  0.2735061E+01  0.6223009E+02 -0.2729238E+01  0.2378131E+03  0.2735009E+01
  0.1276364E+02  0.9187119E+02  0.2783767E+01  0.6721271E+02  0.3099727E+01  0.2718435E+03  0.2783724E+01
  0.1296465E+02  0.1027070E+03  0.2821792E+01  0.5007847E+02  0.2621147E+01  0.3039049E+03  0.2821755E+01
  0.1316566E+02  0.1128313E+03  0.2852091E+01  0.3381794E+02  0.2404245E+01  0.3338607E+03  0.2852059E+01
  0.1336667E+02  0.1221912E+03  0.2876439E+01  0.2488962E+02  0.2306112E+01  0.3615554E+03  0.2876413E+01
  0.1356768E+02  0.1307346E+03  0.2895840E+01  0.1984087E+02  0.2229866E+01  0.3868342E+03  0.2895818E+01
  0.1376869E+02  0.1384690E+03  0.2910625E+01  0.1661946E+02  0.2145865E+01  0.4097183E+03  0.2910606E+01
  0.1396970E+02  0.1453529E+03  0.2921384E+01  0.1443810E+02  0.2047540E+01  0.4300877E+03  0.2921368E+01
  0.1417071E+02  0.1513875E+03  0.2927136E+01  0.1283881E+02  0.1937607E+01  0.4479437E+03  0.2927124E+01
  0.1437172E+02  0.1565748E+03  0.2927098E+01  0.1158721E+02  0.1818518E+01  0.4632923E+03  0.2927088E+01
  0.1457273E+02  0.1608656E+03  0.2919919E+01  0.1057973E+02  0.1693216E+01  0.4759884E+03  0.2919912E+01
  0.1477374E+02  0.1642748E+03  0.2903733E+01  0.9692715E+01  0.1562349E+01  0.4860781E+03  0.2903729E+01
  0.1497475E+02  0.1666816E+03  0.2873511E+01  0.8923367E+01  0.1426332E+01  0.4932007E+03  0.2873509E+01
  0.1517576E+02  0.1677602E+03  0.2821626E+01  0.8225904E+01  0.1283755E+01  0.4963951E+03  0.2821626E+01
  0.1537677E+02  0.1666812E+03  0.2733086E+01  0.7569440E+01  0.1131841E+01  0.4932073E+03  0.2733088E+01
  0.1557778E+02  0.1604000E+03  0.2575961E+01  0.6956377E+01  0.9662942E+00  0.4746281E+03  0.2575964E+01
  0.1577879E+02  0.1386396E+03  0.2283613E+01  0.6401225E+01  0.7808368E+00  0.4102534E+03  0.2283615E+01
  0.1597980E+02  0.7823958E+02  0.1774195E+01  0.5939977E+01  0.5723876E+00  0.2315482E+03  0.1774196E+01
  0.1618081E+02  0.7207731E+01 -0.1438232E+01  0.5622579E+01  0.3383182E+00  0.2128776E+02 -0.1437150E+01
  0.1638182E+02  0.5999317E+02 -0.2177249E+01  0.5491186E+01  0.8524635E-01  0.1774766E+03 -0.2177200E+01
  0.1658283E+02  0.8341730E+02 -0.2386019E+01  0.5569107E+01 -0.1696395E+00  0.2467932E+03 -0.2385983E+01
  0.1678384E+02  0.9246689E+02 -0.2497949E+01  0.5868272E+01 -0.4115580E+00  0.2735752E+03 -0.2497913E+01
  0.1698485E+02  0.9442330E+02 -0.2561899E+01  0.6315058E+01 -0.6247077E+00  0.2793678E+03 -0.2561863E+01
  0.1718586E+02  0.9261076E+02 -0.2599689E+01  0.6862489E+01 -0.8092176E+00  0.2740076E+03 -0.2599650E+01
  0.1738687E+02  0.8852588E+02 -0.2620414E+01  0.7404342E+01 -0.9684606E+00  0.2619242E+03 -0.2620372E+01
  0.1758788E+02  0.8282868E+02 -0.2629925E+01  0.7903354E+01 -0.1109406E+01  0.2450689E+03 -0.2629879E+01
  0.1778889E+02  0.7599645E+02 -0.2630507E+01  0.8261688E+01 -0.1238717E+01  0.2248556E+03 -0.2630458E+01
  0.1798990E+02  0.6833754E+02 -0.2622756E+01  0.8406845E+01 -0.1363557E+01  0.2021960E+03 -0.2622703E+01
  0.1819091E+02  0.6006833E+02 -0.2606760E+01  0.8198472E+01 -0.1493272E+01  0.1777301E+03 -0.2606702E+01
  0.1839192E+02  0.5136371E+02 -0.2579509E+01  0.7485647E+01 -0.1642158E+01  0.1519761E+03 -0.2579445E+01
  0.1859293E+02  0.4239654E+02 -0.2536062E+01  0.5794394E+01 -0.1827827E+01  0.1254452E+03 -0.2535991E+01
  0.1879394E+02  0.3339767E+02 -0.2465163E+01  0.2445667E+01 -0.2156842E+01  0.9882053E+02 -0.2465086E+01
  0.1899495E+02  0.2460386E+02 -0.2336602E+01  0.3767158E+01  0.8735765E+00  0.7280235E+02 -0.2336519E+01
  0.1919596E+02  0.1668533E+02 -0.2071451E+01  0.1250293E+02  0.2635916E+00  0.4937399E+02 -0.2071378E+01
  0.1939697E+02  0.1172380E+02 -0.1487360E+01  0.1846590E+02 -0.2982025E+00  0.3469380E+02 -0.1487376E+01
  0.1959798E+02  0.1329229E+02 -0.7367779E+00  0.1982550E+02 -0.6854510E+00  0.3933168E+02 -0.7368690E+00
  0.1979899E+02  0.1962590E+02 -0.3366266E+00  0.1918881E+02 -0.9301069E+00  0.5806935E+02 -0.3366788E+00
  0.2000000E+02  0.2735217E+02 -0.1639459E+00  0.1802261E+02 -0.1097730E+01  0.8092900E+02 -0.1639660E+00
