VARIABLES="w (rad/s)"
"abs(F   1   1)" "angle(F   1   1)"
"abs(F   1   2)" "angle(F   1   2)"
"abs(F   1   3)" "angle(F   1   3)"
Zone t="Diffraction force - beta =   0.000 deg",I=   100,F=POINT
  0.1000000E+00  0.1593479E+00 -0.1570800E+01  0.6567438E+03 -0.3461995E-07  0.4715318E+00 -0.1570889E+01
  0.3010101E+00  0.1464322E+01 -0.1570797E+01  0.6554932E+03 -0.2755198E-05  0.4333118E+01 -0.1570796E+01
  0.5020202E+00  0.4071993E+01 -0.1570796E+01  0.6529879E+03 -0.2122842E-04  0.1204956E+02 -0.1570797E+01
  0.7030303E+00  0.7983679E+01 -0.1570796E+01  0.6492019E+03 -0.8116136E-04  0.2362474E+02 -0.1570796E+01
  0.9040404E+00  0.1318624E+02 -0.1570794E+01  0.6441651E+03 -0.2201961E-03  0.3901979E+02 -0.1570794E+01
  0.1105051E+01  0.1967980E+02 -0.1570788E+01  0.6378724E+03 -0.4867870E-03  0.5823499E+02 -0.1570789E+01
  0.1306061E+01  0.2741901E+02 -0.1570775E+01  0.6303536E+03 -0.9387721E-03  0.8113630E+02 -0.1570775E+01
  0.1507071E+01  0.3635334E+02 -0.1570747E+01  0.6216365E+03 -0.1641648E-02  0.1075740E+03 -0.1570747E+01
  0.1708081E+01  0.4659890E+02 -0.1570694E+01  0.6117645E+03 -0.2666611E-02  0.1378917E+03 -0.1570693E+01
  0.1909091E+01  0.5790392E+02 -0.1570598E+01  0.6007945E+03 -0.4088858E-02  0.1713448E+03 -0.1570598E+01
  0.2110101E+01  0.7053076E+02 -0.1570440E+01  0.5887924E+03 -0.5984972E-02  0.2087088E+03 -0.1570439E+01
  0.2311111E+01  0.8410754E+02 -0.1570189E+01  0.5758200E+03 -0.8431572E-02  0.2488837E+03 -0.1570189E+01
  0.2512121E+01  0.9893513E+02 -0.1569809E+01  0.5619894E+03 -0.1150371E-01  0.2927604E+03 -0.1569809E+01
  0.2713131E+01  0.1148811E+03 -0.1569255E+01  0.5473604E+03 -0.1527120E-01  0.3399455E+03 -0.1569255E+01
  0.2914141E+01  0.1316225E+03 -0.1568470E+01  0.5320500E+03 -0.1980239E-01  0.3894851E+03 -0.1568470E+01
  0.3115151E+01  0.1495936E+03 -0.1567387E+01  0.5161382E+03 -0.2515693E-01  0.4426621E+03 -0.1567387E+01
  0.3316161E+01  0.1686440E+03 -0.1565931E+01  0.4997475E+03 -0.3138870E-01  0.4990349E+03 -0.1565931E+01
  0.3517171E+01  0.1884715E+03 -0.1564010E+01  0.4829304E+03 -0.3854509E-01  0.5577057E+03 -0.1564010E+01
  0.3718182E+01  0.2089867E+03 -0.1561525E+01  0.4658339E+03 -0.4667496E-01  0.6184116E+03 -0.1561525E+01
  0.3919192E+01  0.2307104E+03 -0.1558369E+01  0.4485068E+03 -0.5580764E-01  0.6826938E+03 -0.1558370E+01
  0.4120202E+01  0.2533323E+03 -0.1554420E+01  0.4310459E+03 -0.6597055E-01  0.7496334E+03 -0.1554421E+01
  0.4321212E+01  0.2765916E+03 -0.1549545E+01  0.4135549E+03 -0.7719299E-01  0.8184584E+03 -0.1549545E+01
  0.4522222E+01  0.3002090E+03 -0.1543602E+01  0.3960571E+03 -0.8950153E-01  0.8883428E+03 -0.1543602E+01
  0.4723232E+01  0.3243293E+03 -0.1536471E+01  0.3786486E+03 -0.1029254E+00  0.9597156E+03 -0.1536471E+01
  0.4924242E+01  0.3492935E+03 -0.1528041E+01  0.3614221E+03 -0.1174628E+00  0.1033586E+04 -0.1528041E+01
  0.5125252E+01  0.3746078E+03 -0.1518174E+01  0.3443917E+03 -0.1331253E+00  0.1108491E+04 -0.1518174E+01
  0.5326262E+01  0.3999348E+03 -0.1506745E+01  0.3275851E+03 -0.1499286E+00  0.1183433E+04 -0.1506745E+01
  0.5527273E+01  0.4248749E+03 -0.1493651E+01  0.3110908E+03 -0.1678928E+00  0.1257230E+04 -0.1493651E+01
  0.5728283E+01  0.4490285E+03 -0.1478829E+01  0.2949531E+03 -0.1870618E+00  0.1328700E+04 -0.1478829E+01
  0.5929293E+01  0.4723920E+03 -0.1462363E+01  0.2791714E+03 -0.2074680E+00  0.1397832E+04 -0.1462363E+01
  0.6130303E+01  0.4949076E+03 -0.1444378E+01  0.2637705E+03 -0.2290949E+00  0.1464454E+04 -0.1444378E+01
  0.6331313E+01  0.5158861E+03 -0.1424953E+01  0.2488177E+03 -0.2519391E+00  0.1526528E+04 -0.1424953E+01
  0.6532323E+01  0.5347832E+03 -0.1404278E+01  0.2343326E+03 -0.2760441E+00  0.1582445E+04 -0.1404278E+01
  0.6733334E+01  0.5510950E+03 -0.1382669E+01  0.2203172E+03 -0.3014635E+00  0.1630711E+04 -0.1382669E+01
  0.6934343E+01  0.5647173E+03 -0.1360678E+01  0.2067506E+03 -0.3282361E+00  0.1671018E+04 -0.1360678E+01
  0.7135354E+01  0.5753239E+03 -0.1338713E+01  0.1936802E+03 -0.3563381E+00  0.1702398E+04 -0.1338713E+01
  0.7336363E+01  0.5825915E+03 -0.1317236E+01  0.1811257E+03 -0.3857999E+00  0.1723901E+04 -0.1317236E+01
  0.7537374E+01  0.5863402E+03 -0.1296827E+01  0.1690984E+03 -0.4166712E+00  0.1734990E+04 -0.1296827E+01
  0.7738384E+01  0.5867939E+03 -0.1278143E+01  0.1575827E+03 -0.4489705E+00  0.1736329E+04 -0.1278144E+01
  0.7939394E+01  0.5839109E+03 -0.1261695E+01  0.1465662E+03 -0.4827861E+00  0.1727798E+04 -0.1261695E+01
  0.8140405E+01  0.5779185E+03 -0.1247977E+01  0.1360499E+03 -0.5182434E+00  0.1710063E+04 -0.1247976E+01
  0.8341414E+01  0.5691714E+03 -0.1237434E+01  0.1260546E+03 -0.5552587E+00  0.1684179E+04 -0.1237434E+01
  0.8542424E+01  0.5581451E+03 -0.1230407E+01  0.1165800E+03 -0.5938453E+00  0.1651547E+04 -0.1230406E+01
  0.8743435E+01  0.5451320E+03 -0.1227117E+01  0.1076138E+03 -0.6341168E+00  0.1613044E+04 -0.1227117E+01
  0.8944445E+01  0.5305758E+03 -0.1227719E+01  0.9913928E+02 -0.6762132E+00  0.1569966E+04 -0.1227718E+01
  0.9145455E+01  0.5149084E+03 -0.1232272E+01  0.9114124E+02 -0.7201996E+00  0.1523606E+04 -0.1232272E+01
  0.9346465E+01  0.4983813E+03 -0.1240910E+01  0.8361435E+02 -0.7662808E+00  0.1474699E+04 -0.1240910E+01
  0.9547475E+01  0.4813207E+03 -0.1253553E+01  0.7656876E+02 -0.8145589E+00  0.1424215E+04 -0.1253553E+01
  0.9748485E+01  0.4640505E+03 -0.1270066E+01  0.6998967E+02 -0.8649734E+00  0.1373114E+04 -0.1270067E+01
  0.9949495E+01  0.4467275E+03 -0.1290459E+01  0.6387706E+02 -0.9178587E+00  0.1321853E+04 -0.1290459E+01
  0.1015051E+02  0.4295009E+03 -0.1314695E+01  0.5821153E+02 -0.9734429E+00  0.1270881E+04 -0.1314697E+01
  0.1035151E+02  0.4125611E+03 -0.1342537E+01  0.5296973E+02 -0.1032051E+01  0.1220751E+04 -0.1342538E+01
  0.1055252E+02  0.3959738E+03 -0.1373947E+01  0.4819104E+02 -0.1094140E+01  0.1171668E+04 -0.1373947E+01
  0.1075354E+02  0.3798253E+03 -0.1408756E+01  0.4383068E+02 -0.1160379E+01  0.1123885E+04 -0.1408756E+01
  0.1095455E+02  0.3641986E+03 -0.1446802E+01  0.3994717E+02 -0.1231274E+01  0.1077648E+04 -0.1446802E+01
  0.1115556E+02  0.3491131E+03 -0.1488003E+01  0.3656288E+02 -0.1307601E+01  0.1033007E+04 -0.1488003E+01
  0.1135657E+02  0.3346094E+03 -0.1532245E+01  0.3370712E+02 -0.1391685E+01  0.9900888E+03 -0.1532245E+01
  0.1155758E+02  0.3206763E+03 -0.1579494E+01  0.3149484E+02 -0.1484611E+01  0.9488597E+03 -0.1579494E+01
  0.1175859E+02  0.3073161E+03 -0.1629714E+01  0.3002161E+02 -0.1591787E+01  0.9093261E+03 -0.1629714E+01
  0.1195960E+02  0.2945137E+03 -0.1682860E+01  0.2954671E+02 -0.1719383E+01  0.8714464E+03 -0.1682859E+01
  0.1216061E+02  0.2823208E+03 -0.1738775E+01  0.3071099E+02 -0.1881531E+01  0.8353678E+03 -0.1738774E+01
  0.1236162E+02  0.2706619E+03 -0.1797593E+01  0.3441538E+02 -0.2115196E+01  0.8008677E+03 -0.1797593E+01
  0.1256263E+02  0.2595450E+03 -0.1859196E+01  0.4217333E+02 -0.2508843E+01  0.7679716E+03 -0.1859197E+01
  0.1276364E+02  0.2489811E+03 -0.1923692E+01  0.4712039E+02  0.3081857E+01  0.7367133E+03 -0.1923693E+01
  0.1296465E+02  0.2389341E+03 -0.1991125E+01  0.3588958E+02  0.2374756E+01  0.7069852E+03 -0.1991125E+01
  0.1316566E+02  0.2293851E+03 -0.2061692E+01  0.2467814E+02  0.1970105E+01  0.6787311E+03 -0.2061691E+01
  0.1336667E+02  0.2203304E+03 -0.2135541E+01  0.1871649E+02  0.1736988E+01  0.6519390E+03 -0.2135540E+01
  0.1356768E+02  0.2117600E+03 -0.2212826E+01  0.1568570E+02  0.1576534E+01  0.6265777E+03 -0.2212827E+01
  0.1376869E+02  0.2036624E+03 -0.2294067E+01  0.1405610E+02  0.1445725E+01  0.6026196E+03 -0.2294064E+01
  0.1396970E+02  0.1960894E+03 -0.2379450E+01  0.1320807E+02  0.1330372E+01  0.5802109E+03 -0.2379450E+01
  0.1417071E+02  0.1889615E+03 -0.2469953E+01  0.1275387E+02  0.1221730E+01  0.5591208E+03 -0.2469953E+01
  0.1437172E+02  0.1822867E+03 -0.2566725E+01  0.1251314E+02  0.1114602E+01  0.5393699E+03 -0.2566727E+01
  0.1457273E+02  0.1760458E+03 -0.2671247E+01  0.1240913E+02  0.1008805E+01  0.5209048E+03 -0.2671246E+01
  0.1477374E+02  0.1703142E+03 -0.2785834E+01  0.1236266E+02  0.9010892E+00  0.5039479E+03 -0.2785833E+01
  0.1497475E+02  0.1649347E+03 -0.2915251E+01  0.1237936E+02  0.7942203E+00  0.4880316E+03 -0.2915250E+01
  0.1517576E+02  0.1596889E+03 -0.3067069E+01  0.1242984E+02  0.6876335E+00  0.4725125E+03 -0.3067069E+01
  0.1537677E+02  0.1539771E+03  0.3026922E+01  0.1248774E+02  0.5807899E+00  0.4556163E+03  0.3026923E+01
  0.1557778E+02  0.1453819E+03  0.2769208E+01  0.1254467E+02  0.4737852E+00  0.4301899E+03  0.2769207E+01
  0.1577879E+02  0.1254553E+03  0.2378488E+01  0.1259367E+02  0.3658803E+00  0.3712404E+03  0.2378487E+01
  0.1597980E+02  0.7433969E+02  0.1785027E+01  0.1262550E+02  0.2576700E+00  0.2200064E+03  0.1785028E+01
  0.1618081E+02  0.2456964E+01  0.1172604E+01  0.1264090E+02  0.1481687E+00  0.7313093E+01  0.1172469E+01
  0.1638182E+02  0.4379004E+02 -0.2466822E+01  0.1262647E+02  0.3703675E-01  0.1295337E+03 -0.2466826E+01
  0.1658283E+02  0.6516743E+02 -0.2769910E+01  0.1257045E+02 -0.7486561E-01  0.1927934E+03 -0.2769914E+01
  0.1678384E+02  0.7483340E+02 -0.2989151E+01  0.1248669E+02 -0.1891282E+00  0.2213982E+03 -0.2989153E+01
  0.1698485E+02  0.7902138E+02  0.3116956E+01  0.1234449E+02 -0.3038503E+00  0.2337930E+03  0.3116952E+01
  0.1718586E+02  0.8062843E+02  0.2962738E+01  0.1214926E+02 -0.4211471E+00  0.2385499E+03  0.2962737E+01
  0.1738687E+02  0.8084463E+02  0.2822851E+01  0.1185379E+02 -0.5406714E+00  0.2391917E+03  0.2822851E+01
  0.1758788E+02  0.8025076E+02  0.2690424E+01  0.1146557E+02 -0.6652219E+00  0.2374356E+03  0.2690422E+01
  0.1778889E+02  0.7918707E+02  0.2562703E+01  0.1093218E+02 -0.7958153E+00  0.2342893E+03  0.2562704E+01
  0.1798990E+02  0.7783301E+02  0.2437893E+01  0.1021866E+02 -0.9358299E+00  0.2302841E+03  0.2437893E+01
  0.1819091E+02  0.7634412E+02  0.2314387E+01  0.9221459E+01 -0.1089497E+01  0.2258791E+03  0.2314387E+01
  0.1839192E+02  0.7475030E+02  0.2191267E+01  0.7823749E+01 -0.1267477E+01  0.2211642E+03  0.2191267E+01
  0.1859293E+02  0.7313021E+02  0.2067650E+01  0.5633711E+01 -0.1468124E+01  0.2163709E+03  0.2067651E+01
  0.1879394E+02  0.7153184E+02  0.1943450E+01  0.2044534E+01 -0.1653358E+01  0.2116424E+03  0.1943451E+01
  0.1899495E+02  0.6994386E+02  0.1817094E+01  0.3955266E+01  0.8185711E+00  0.2069449E+03  0.1817093E+01
  0.1919596E+02  0.6842621E+02  0.1688110E+01  0.1188883E+02  0.2775581E+00  0.2024544E+03  0.1688110E+01
  0.1939697E+02  0.6699701E+02  0.1556212E+01  0.1697682E+02 -0.3252786E+00  0.1982267E+03  0.1556212E+01
  0.1959798E+02  0.6569569E+02  0.1420375E+01  0.1797256E+02 -0.7730002E+00  0.1943772E+03  0.1420376E+01
  0.1979899E+02  0.6454952E+02  0.1279724E+01  0.1738269E+02 -0.1086454E+01  0.1909865E+03  0.1279724E+01
  0.2000000E+02  0.6360777E+02  0.1132666E+01  0.1652992E+02 -0.1327547E+01  0.1882007E+03  0.1132666E+01
