VARIABLES="w (rad/s)"
"abs(F   1   1)" "angle(F   1   1)"
"abs(F   1   2)" "angle(F   1   2)"
"abs(F   1   3)" "angle(F   1   3)"
Zone t="FKforce - beta =   0.000",I=   100,F=POINT
  0.1000000E+00  0.1010238E+00 -0.1570803E+01  0.6567982E+03 -0.1163182E-12  0.2989438E+00 -0.1570942E+01
  0.3010101E+00  0.9147805E+00 -0.1570797E+01  0.6559833E+03 -0.1242268E-11  0.2706969E+01 -0.1570796E+01
  0.5020202E+00  0.2541319E+01 -0.1570796E+01  0.6543577E+03 -0.3184549E-10  0.7520147E+01 -0.1570797E+01
  0.7030303E+00  0.4974598E+01 -0.1570796E+01  0.6519215E+03 -0.8392912E-11  0.1472056E+02 -0.1570797E+01
  0.9040404E+00  0.8205544E+01 -0.1570797E+01  0.6486841E+03  0.5778735E-10  0.2428139E+02 -0.1570797E+01
  0.1105051E+01  0.1222214E+02 -0.1570796E+01  0.6446503E+03 -0.6212186E-10  0.3616703E+02 -0.1570797E+01
  0.1306061E+01  0.1700934E+02 -0.1570796E+01  0.6398376E+03 -0.8151140E-10  0.5033307E+02 -0.1570796E+01
  0.1507071E+01  0.2254929E+02 -0.1570796E+01  0.6342582E+03  0.1115957E-09  0.6672654E+02 -0.1570796E+01
  0.1708081E+01  0.2882115E+02 -0.1570797E+01  0.6279277E+03  0.3114654E-09  0.8528572E+02 -0.1570796E+01
  0.1909091E+01  0.3580127E+02 -0.1570797E+01  0.6208623E+03  0.3750117E-10  0.1059410E+03 -0.1570797E+01
  0.2110101E+01  0.4346335E+02 -0.1570797E+01  0.6130844E+03  0.2126708E-10  0.1286138E+03 -0.1570796E+01
  0.2311111E+01  0.5177838E+02 -0.1570796E+01  0.6046148E+03 -0.4312999E-09  0.1532190E+03 -0.1570796E+01
  0.2512121E+01  0.6071452E+02 -0.1570796E+01  0.5954787E+03 -0.5943161E-10  0.1796623E+03 -0.1570796E+01
  0.2713131E+01  0.7023772E+02 -0.1570796E+01  0.5857005E+03  0.3084795E-09  0.2078420E+03 -0.1570796E+01
  0.2914141E+01  0.8031123E+02 -0.1570796E+01  0.5753105E+03 -0.9097753E-09  0.2376511E+03 -0.1570796E+01
  0.3115151E+01  0.9089618E+02 -0.1570796E+01  0.5643343E+03 -0.8614582E-09  0.2689722E+03 -0.1570796E+01
  0.3316161E+01  0.1019509E+03 -0.1570796E+01  0.5528057E+03  0.4683520E-09  0.3016853E+03 -0.1570796E+01
  0.3517171E+01  0.1134329E+03 -0.1570796E+01  0.5407554E+03 -0.2266497E-08  0.3356613E+03 -0.1570796E+01
  0.3718182E+01  0.1252958E+03 -0.1570796E+01  0.5282187E+03  0.2270922E-08  0.3707650E+03 -0.1570796E+01
  0.3919192E+01  0.1374930E+03 -0.1570796E+01  0.5152305E+03 -0.2017264E-08  0.4068579E+03 -0.1570796E+01
  0.4120202E+01  0.1499755E+03 -0.1570796E+01  0.5018252E+03  0.1217451E-08  0.4437948E+03 -0.1570796E+01
  0.4321212E+01  0.1626926E+03 -0.1570796E+01  0.4880406E+03  0.2740303E-08  0.4814251E+03 -0.1570796E+01
  0.4522222E+01  0.1755925E+03 -0.1570796E+01  0.4739160E+03  0.3089237E-08  0.5195968E+03 -0.1570796E+01
  0.4723232E+01  0.1886220E+03 -0.1570796E+01  0.4594881E+03  0.8756078E-09  0.5581513E+03 -0.1570796E+01
  0.4924242E+01  0.2017260E+03 -0.1570796E+01  0.4447980E+03 -0.1683423E-08  0.5969280E+03 -0.1570796E+01
  0.5125252E+01  0.2148497E+03 -0.1570796E+01  0.4298843E+03  0.1022564E-08  0.6357618E+03 -0.1570796E+01
  0.5326262E+01  0.2279376E+03 -0.1570796E+01  0.4147870E+03  0.1122652E-08  0.6744883E+03 -0.1570796E+01
  0.5527273E+01  0.2409317E+03 -0.1570796E+01  0.3995479E+03  0.2731863E-08  0.7129374E+03 -0.1570796E+01
  0.5728283E+01  0.2537758E+03 -0.1570796E+01  0.3842062E+03 -0.1357450E-09  0.7509440E+03 -0.1570796E+01
  0.5929293E+01  0.2664125E+03 -0.1570796E+01  0.3688020E+03  0.2242435E-08  0.7883359E+03 -0.1570796E+01
  0.6130303E+01  0.2787849E+03 -0.1570796E+01  0.3533754E+03  0.3078270E-08  0.8249438E+03 -0.1570796E+01
  0.6331313E+01  0.2908349E+03 -0.1570796E+01  0.3379658E+03  0.1102269E-09  0.8606012E+03 -0.1570796E+01
  0.6532323E+01  0.3025064E+03 -0.1570796E+01  0.3226127E+03 -0.5912194E-08  0.8951385E+03 -0.1570796E+01
  0.6733334E+01  0.3137448E+03 -0.1570796E+01  0.3073542E+03 -0.2763476E-08  0.9283914E+03 -0.1570796E+01
  0.6934343E+01  0.3244934E+03 -0.1570796E+01  0.2922264E+03  0.2524096E-08  0.9601968E+03 -0.1570796E+01
  0.7135354E+01  0.3347000E+03 -0.1570796E+01  0.2772675E+03  0.4299432E-08  0.9903957E+03 -0.1570796E+01
  0.7336363E+01  0.3443105E+03 -0.1570796E+01  0.2625124E+03 -0.3973455E-08  0.1018833E+04 -0.1570796E+01
  0.7537374E+01  0.3532762E+03 -0.1570796E+01  0.2479949E+03  0.1111602E-08  0.1045361E+04 -0.1570796E+01
  0.7738384E+01  0.3615456E+03 -0.1570796E+01  0.2337473E+03  0.3761193E-08  0.1069829E+04 -0.1570796E+01
  0.7939394E+01  0.3690733E+03 -0.1570796E+01  0.2198011E+03  0.2406681E-08  0.1092104E+04 -0.1570796E+01
  0.8140405E+01  0.3758156E+03 -0.1570796E+01  0.2061853E+03 -0.2529476E-09  0.1112053E+04 -0.1570796E+01
  0.8341414E+01  0.3817289E+03 -0.1570796E+01  0.1929275E+03  0.2317113E-09  0.1129550E+04 -0.1570796E+01
  0.8542424E+01  0.3867768E+03 -0.1570796E+01  0.1800538E+03  0.5089710E-08  0.1144483E+04 -0.1570796E+01
  0.8743435E+01  0.3909197E+03 -0.1570796E+01  0.1675879E+03  0.1000299E-08  0.1156745E+04 -0.1570796E+01
  0.8944445E+01  0.3941291E+03 -0.1570796E+01  0.1555512E+03 -0.3592346E-09  0.1166236E+04 -0.1570796E+01
  0.9145455E+01  0.3963737E+03 -0.1570796E+01  0.1439632E+03  0.2015794E-07  0.1172879E+04 -0.1570796E+01
  0.9346465E+01  0.3976290E+03 -0.1570796E+01  0.1328416E+03 -0.1093681E-08  0.1176590E+04 -0.1570796E+01
  0.9547475E+01  0.3978733E+03 -0.1570796E+01  0.1222009E+03 -0.1859582E-08  0.1177312E+04 -0.1570796E+01
  0.9748485E+01  0.3970915E+03 -0.1570796E+01  0.1120537E+03  0.1549244E-07  0.1175000E+04 -0.1570796E+01
  0.9949495E+01  0.3952696E+03 -0.1570796E+01  0.1024097E+03 -0.1658762E-07  0.1169607E+04 -0.1570796E+01
  0.1015051E+02  0.3924002E+03 -0.1570796E+01  0.9327721E+02  0.2148656E-07  0.1161118E+04 -0.1570796E+01
  0.1035151E+02  0.3884834E+03 -0.1570796E+01  0.8466109E+02 -0.1060458E-07  0.1149523E+04 -0.1570796E+01
  0.1055252E+02  0.3835181E+03 -0.1570796E+01  0.7656395E+02 -0.2520377E-07  0.1134829E+04 -0.1570796E+01
  0.1075354E+02  0.3775126E+03 -0.1570796E+01  0.6898596E+02 -0.2052027E-08  0.1117059E+04 -0.1570796E+01
  0.1095455E+02  0.3704805E+03 -0.1570796E+01  0.6192495E+02  0.4535924E-07  0.1096252E+04 -0.1570796E+01
  0.1115556E+02  0.3624403E+03 -0.1570796E+01  0.5537632E+02  0.1547262E-08  0.1072458E+04 -0.1570796E+01
  0.1135657E+02  0.3534151E+03 -0.1570796E+01  0.4933287E+02  0.4530801E-09  0.1045750E+04 -0.1570796E+01
  0.1155758E+02  0.3434343E+03 -0.1570796E+01  0.4378532E+02  0.2722586E-08  0.1016215E+04 -0.1570796E+01
  0.1175859E+02  0.3325320E+03 -0.1570796E+01  0.3872187E+02 -0.2636054E-07  0.9839540E+03 -0.1570796E+01
  0.1195960E+02  0.3207496E+03 -0.1570796E+01  0.3412889E+02  0.8623133E-08  0.9490917E+03 -0.1570796E+01
  0.1216061E+02  0.3081326E+03 -0.1570796E+01  0.2999057E+02  0.6353618E-07  0.9117574E+03 -0.1570796E+01
  0.1236162E+02  0.2947325E+03 -0.1570796E+01  0.2628915E+02 -0.2338124E-08  0.8721048E+03 -0.1570796E+01
  0.1256263E+02  0.2806061E+03 -0.1570796E+01  0.2300519E+02 -0.7772764E-08  0.8303033E+03 -0.1570796E+01
  0.1276364E+02  0.2658146E+03 -0.1570796E+01  0.2011747E+02 -0.3601690E-07  0.7865347E+03 -0.1570796E+01
  0.1296465E+02  0.2504248E+03 -0.1570796E+01  0.1760353E+02 -0.4623936E-07  0.7409972E+03 -0.1570796E+01
  0.1316566E+02  0.2345077E+03 -0.1570796E+01  0.1543947E+02 -0.5863192E-07  0.6938997E+03 -0.1570796E+01
  0.1336667E+02  0.2181398E+03 -0.1570796E+01  0.1360027E+02 -0.1035391E-06  0.6454672E+03 -0.1570796E+01
  0.1356768E+02  0.2014008E+03 -0.1570796E+01  0.1206018E+02 -0.5004046E-07  0.5959341E+03 -0.1570796E+01
  0.1376869E+02  0.1843728E+03 -0.1570796E+01  0.1079263E+02 -0.1042413E-06  0.5455523E+03 -0.1570796E+01
  0.1396970E+02  0.1671443E+03 -0.1570796E+01  0.9770510E+01 -0.1051377E-06  0.4945723E+03 -0.1570796E+01
  0.1417071E+02  0.1498030E+03 -0.1570796E+01  0.8966597E+01 -0.1765718E-07  0.4432596E+03 -0.1570796E+01
  0.1437172E+02  0.1324411E+03 -0.1570796E+01  0.8353607E+01  0.4058144E-07  0.3918854E+03 -0.1570796E+01
  0.1457273E+02  0.1151513E+03 -0.1570796E+01  0.7904420E+01  0.3687860E-07  0.3407268E+03 -0.1570796E+01
  0.1477374E+02  0.9802772E+02 -0.1570796E+01  0.7592324E+01  0.9690641E-08  0.2900596E+03 -0.1570796E+01
  0.1497475E+02  0.8116460E+02 -0.1570796E+01  0.7391335E+01 -0.2394037E-08  0.2401627E+03 -0.1570796E+01
  0.1517576E+02  0.6465601E+02 -0.1570796E+01  0.7276277E+01 -0.6873298E-07  0.1913144E+03 -0.1570796E+01
  0.1537677E+02  0.4859439E+02 -0.1570796E+01  0.7223149E+01  0.1186210E-07  0.1437894E+03 -0.1570796E+01
  0.1557778E+02  0.3307080E+02 -0.1570796E+01  0.7209172E+01 -0.3165052E-08  0.9785573E+02 -0.1570796E+01
  0.1577879E+02  0.1817328E+02 -0.1570796E+01  0.7213139E+01 -0.2550016E-07  0.5377551E+02 -0.1570796E+01
  0.1597980E+02  0.3986421E+01 -0.1570795E+01  0.7215481E+01 -0.3517235E-07  0.1179788E+02 -0.1570795E+01
  0.1618081E+02  0.9409231E+01  0.1570796E+01  0.7198532E+01 -0.9722662E-07  0.2783849E+02  0.1570796E+01
  0.1638182E+02  0.2193847E+02  0.1570796E+01  0.7146565E+01 -0.4469890E-07  0.6491137E+02  0.1570796E+01
  0.1658283E+02  0.3353200E+02  0.1570796E+01  0.7046069E+01  0.7137514E-07  0.9921536E+02  0.1570796E+01
  0.1678384E+02  0.4412709E+02  0.1570796E+01  0.6885767E+01 -0.1478318E-06  0.1305648E+03  0.1570796E+01
  0.1698485E+02  0.5366869E+02  0.1570796E+01  0.6656652E+01 -0.2151094E-07  0.1587972E+03  0.1570796E+01
  0.1718586E+02  0.6210966E+02  0.1570796E+01  0.6352102E+01 -0.5692383E-07  0.1837723E+03  0.1570796E+01
  0.1738687E+02  0.6941167E+02  0.1570796E+01  0.5967937E+01  0.2715346E-07  0.2053783E+03  0.1570796E+01
  0.1758788E+02  0.7554633E+02  0.1570796E+01  0.5502357E+01 -0.7857842E-07  0.2235299E+03  0.1570796E+01
  0.1778889E+02  0.8049458E+02  0.1570796E+01  0.4955885E+01 -0.2047416E-06  0.2381703E+03  0.1570796E+01
  0.1798990E+02  0.8424784E+02  0.1570796E+01  0.4331421E+01 -0.3655263E-08  0.2492760E+03  0.1570796E+01
  0.1819091E+02  0.8680920E+02  0.1570796E+01  0.3633956E+01  0.4036464E-07  0.2568540E+03  0.1570796E+01
  0.1839192E+02  0.8819151E+02  0.1570796E+01  0.2870611E+01 -0.4318211E-06  0.2609443E+03  0.1570796E+01
  0.1859293E+02  0.8841983E+02  0.1570796E+01  0.2050403E+01  0.3409448E-06  0.2616193E+03  0.1570796E+01
  0.1879394E+02  0.8752958E+02  0.1570796E+01  0.1184019E+01 -0.5395920E-06  0.2589850E+03  0.1570796E+01
  0.1899495E+02  0.8556814E+02  0.1570796E+01  0.2836460E+00  0.1152472E-05  0.2531816E+03  0.1570796E+01
  0.1919596E+02  0.8259340E+02  0.1570796E+01  0.6372741E+00 -0.3141591E+01  0.2443788E+03  0.1570796E+01
  0.1939697E+02  0.7867290E+02  0.1570796E+01  0.1564345E+01  0.3141593E+01  0.2327788E+03  0.1570796E+01
  0.1959798E+02  0.7388502E+02  0.1570796E+01  0.2482492E+01  0.3141593E+01  0.2186121E+03  0.1570796E+01
  0.1979899E+02  0.6831689E+02  0.1570796E+01  0.3376240E+01 -0.3141592E+01  0.2021364E+03  0.1570796E+01
  0.2000000E+02  0.6206400E+02  0.1570796E+01  0.4230074E+01  0.3141593E+01  0.1836347E+03  0.1570796E+01
