 VARIABLES="Time (s)"
"AddedMass    1" "IRF    1"
"AddedMass    2" "IRF    2"
"AddedMass    3" "IRF    3"
Zone t="DoF    1",I=   800,F=POINT
  0.0000000E+00  0.3411367E+01  0.2602967E+03 -0.8953423E-07 -0.2463473E-04  0.1009493E+02  0.7702026E+03
  0.1000000E-01  0.3411367E+01  0.2585695E+03 -0.8953423E-07 -0.2458075E-04  0.1009493E+02  0.7650926E+03
  0.2000000E-01  0.3411367E+01  0.2534194E+03 -0.8953423E-07 -0.2441890E-04  0.1009493E+02  0.7498535E+03
  0.3000000E-01  0.3411367E+01  0.2449391E+03 -0.8953423E-07 -0.2414963E-04  0.1009493E+02  0.7247610E+03
  0.4000000E-01  0.3411367E+01  0.2332813E+03 -0.8953423E-07 -0.2377365E-04  0.1009493E+02  0.6902668E+03
  0.5000000E-01  0.3411367E+01  0.2186547E+03 -0.8953423E-07 -0.2329212E-04  0.1009493E+02  0.6469885E+03
  0.6000000E-01  0.3411367E+01  0.2013195E+03 -0.8953423E-07 -0.2270673E-04  0.1009493E+02  0.5956955E+03
  0.7000000E-01  0.3411367E+01  0.1815813E+03 -0.8953423E-07 -0.2201985E-04  0.1009493E+02  0.5372922E+03
  0.8000000E-01  0.3411367E+01  0.1597840E+03 -0.8953423E-07 -0.2123462E-04  0.1009493E+02  0.4727961E+03
  0.9000000E-01  0.3411367E+01  0.1363030E+03 -0.8953423E-07 -0.2035520E-04  0.1009493E+02  0.4033177E+03
  0.9999999E-01  0.3411367E+01  0.1115357E+03 -0.8953423E-07 -0.1938676E-04  0.1009493E+02  0.3300338E+03
  0.1100000E+00  0.3411367E+01  0.8589407E+02 -0.8953423E-07 -0.1833574E-04  0.1009493E+02  0.2541624E+03
  0.1200000E+00  0.3411367E+01  0.5979502E+02 -0.8953423E-07 -0.1720985E-04  0.1009493E+02  0.1769375E+03
  0.1300000E+00  0.3411367E+01  0.3365205E+02 -0.8953423E-07 -0.1601813E-04  0.1009493E+02  0.9958244E+02
  0.1400000E+00  0.3411367E+01  0.7866707E+01 -0.8953423E-07 -0.1477099E-04  0.1009493E+02  0.2328547E+02
  0.1500000E+00  0.3411367E+01 -0.1717912E+02 -0.8953423E-07 -0.1348010E-04  0.1009493E+02 -0.5082345E+02
  0.1600000E+00  0.3411367E+01 -0.4113078E+02 -0.8953423E-07 -0.1215830E-04  0.1009493E+02 -0.1216950E+03
  0.1700000E+00  0.3411367E+01 -0.6366689E+02 -0.8953423E-07 -0.1081946E-04  0.1009493E+02 -0.1883782E+03
  0.1800000E+00  0.3411367E+01 -0.8450489E+02 -0.8953423E-07 -0.9478168E-05  0.1009493E+02 -0.2500370E+03
  0.1900000E+00  0.3411367E+01 -0.1034053E+03 -0.8953423E-07 -0.8149510E-05  0.1009493E+02 -0.3059630E+03
  0.2000000E+00  0.3411367E+01 -0.1201748E+03 -0.8953423E-07 -0.6848713E-05  0.1009493E+02 -0.3555836E+03
  0.2100000E+00  0.3411367E+01 -0.1346680E+03 -0.8953423E-07 -0.5590759E-05  0.1009493E+02 -0.3984693E+03
  0.2200000E+00  0.3411367E+01 -0.1467884E+03 -0.8953423E-07 -0.4389966E-05  0.1009493E+02 -0.4343340E+03
  0.2300000E+00  0.3411367E+01 -0.1564873E+03 -0.8953423E-07 -0.3259586E-05  0.1009493E+02 -0.4630338E+03
  0.2400000E+00  0.3411367E+01 -0.1637628E+03 -0.8953423E-07 -0.2211352E-05  0.1009493E+02 -0.4845630E+03
  0.2500000E+00  0.3411367E+01 -0.1686566E+03 -0.8953423E-07 -0.1255073E-05  0.1009493E+02 -0.4990448E+03
  0.2600000E+00  0.3411367E+01 -0.1712504E+03 -0.8953423E-07 -0.3982499E-06  0.1009493E+02 -0.5067213E+03
  0.2700000E+00  0.3411367E+01 -0.1716620E+03 -0.8953423E-07  0.3542753E-06  0.1009493E+02 -0.5079409E+03
  0.2800000E+00  0.3411367E+01 -0.1700396E+03 -0.8953423E-07  0.1000595E-05  0.1009493E+02 -0.5031416E+03
  0.2900000E+00  0.3411367E+01 -0.1665567E+03 -0.8953423E-07  0.1541934E-05  0.1009493E+02 -0.4928375E+03
  0.3000000E+00  0.3411367E+01 -0.1614066E+03 -0.8953423E-07  0.1982793E-05  0.1009493E+02 -0.4775998E+03
  0.3100000E+00  0.3411367E+01 -0.1547961E+03 -0.8953423E-07  0.2330934E-05  0.1009493E+02 -0.4580406E+03
  0.3200000E+00  0.3411367E+01 -0.1469395E+03 -0.8953423E-07  0.2597328E-05  0.1009493E+02 -0.4347949E+03
  0.3300000E+00  0.3411367E+01 -0.1380544E+03 -0.8953423E-07  0.2795952E-05  0.1009493E+02 -0.4085049E+03
  0.3400000E+00  0.3411367E+01 -0.1283548E+03 -0.8953423E-07  0.2943497E-05  0.1009493E+02 -0.3798054E+03
  0.3500000E+00  0.3411367E+01 -0.1180478E+03 -0.8953423E-07  0.3058968E-05  0.1009493E+02 -0.3493076E+03
  0.3600000E+00  0.3411367E+01 -0.1073287E+03 -0.8953423E-07  0.3163175E-05  0.1009493E+02 -0.3175905E+03
  0.3700000E+00  0.3411367E+01 -0.9637797E+02 -0.8953423E-07  0.3278184E-05  0.1009493E+02 -0.2851881E+03
  0.3800000E+00  0.3411367E+01 -0.8535906E+02 -0.8953423E-07  0.3426624E-05  0.1009493E+02 -0.2525836E+03
  0.3900000E+00  0.3411367E+01 -0.7441553E+02 -0.8953423E-07  0.3631018E-05  0.1009493E+02 -0.2202020E+03
  0.4000000E+00  0.3411367E+01 -0.6367101E+02 -0.8953423E-07  0.3913015E-05  0.1009493E+02 -0.1884090E+03
  0.4100000E+00  0.3411367E+01 -0.5322799E+02 -0.8953423E-07  0.4292669E-05  0.1009493E+02 -0.1575078E+03
  0.4200000E+00  0.3411367E+01 -0.4316880E+02 -0.8953423E-07  0.4787693E-05  0.1009493E+02 -0.1277425E+03
  0.4300000E+00  0.3411367E+01 -0.3355614E+02 -0.8953423E-07  0.5412717E-05  0.1009493E+02 -0.9929828E+02
  0.4400000E+00  0.3411367E+01 -0.2443476E+02 -0.8953423E-07  0.6178729E-05  0.1009493E+02 -0.7230756E+02
  0.4500000E+00  0.3411367E+01 -0.1583335E+02 -0.8953423E-07  0.7092432E-05  0.1009493E+02 -0.4685550E+02
  0.4600000E+00  0.3411367E+01 -0.7766689E+01 -0.8953423E-07  0.8155861E-05  0.1009493E+02 -0.2298562E+02
  0.4700000E+00  0.3411367E+01 -0.2381693E+00 -0.8953423E-07  0.9365991E-05  0.1009493E+02 -0.7081000E+00
  0.4800000E+00  0.3411367E+01  0.6757683E+01 -0.8953423E-07  0.1071455E-04  0.1009493E+02  0.1999321E+02
  0.4900000E+00  0.3411367E+01  0.1323260E+02 -0.8953423E-07  0.1218800E-04  0.1009493E+02  0.3915299E+02
  0.5000000E+00  0.3411367E+01  0.1920241E+02 -0.8953423E-07  0.1376765E-04  0.1009493E+02  0.5681809E+02
  0.5100000E+00  0.3411367E+01  0.2468451E+02 -0.8953423E-07  0.1542985E-04  0.1009493E+02  0.7304000E+02
  0.5200000E+00  0.3411367E+01  0.2969625E+02 -0.8953423E-07  0.1714650E-04  0.1009493E+02  0.8787004E+02
  0.5300000E+00  0.3411367E+01  0.3425316E+02 -0.8953423E-07  0.1888556E-04  0.1009493E+02  0.1013541E+03
  0.5400000E+00  0.3411367E+01  0.3836794E+02 -0.8953423E-07  0.2061181E-04  0.1009493E+02  0.1135298E+03
  0.5500000E+00  0.3411367E+01  0.4204961E+02 -0.8953423E-07  0.2228765E-04  0.1009493E+02  0.1244238E+03
  0.5600000E+00  0.3411367E+01  0.4530308E+02 -0.8953423E-07  0.2387402E-04  0.1009493E+02  0.1340507E+03
  0.5700000E+00  0.3411367E+01  0.4812951E+02 -0.8953423E-07  0.2533147E-04  0.1009493E+02  0.1424139E+03
  0.5800000E+00  0.3411367E+01  0.5052646E+02 -0.8953423E-07  0.2662115E-04  0.1009493E+02  0.1495062E+03
  0.5900000E+00  0.3411367E+01  0.5248879E+02 -0.8953423E-07  0.2770595E-04  0.1009493E+02  0.1553124E+03
  0.6000000E+00  0.3411367E+01  0.5400965E+02 -0.8953423E-07  0.2855150E-04  0.1009493E+02  0.1598123E+03
  0.6100000E+00  0.3411367E+01  0.5508179E+02 -0.8953423E-07  0.2912731E-04  0.1009493E+02  0.1629843E+03
  0.6200000E+00  0.3411367E+01  0.5569877E+02 -0.8953423E-07  0.2940765E-04  0.1009493E+02  0.1648096E+03
  0.6300000E+00  0.3411367E+01  0.5585651E+02 -0.8953423E-07  0.2937240E-04  0.1009493E+02  0.1652761E+03
  0.6400000E+00  0.3411367E+01  0.5555461E+02 -0.8953423E-07  0.2900782E-04  0.1009493E+02  0.1643825E+03
  0.6500000E+00  0.3411367E+01  0.5479754E+02 -0.8953423E-07  0.2830716E-04  0.1009493E+02  0.1621421E+03
  0.6600000E+00  0.3411367E+01  0.5359573E+02 -0.8953423E-07  0.2727097E-04  0.1009493E+02  0.1585858E+03
  0.6700000E+00  0.3411367E+01  0.5196644E+02 -0.8953423E-07  0.2590740E-04  0.1009493E+02  0.1537648E+03
  0.6800000E+00  0.3411367E+01  0.4993437E+02 -0.8953423E-07  0.2423221E-04  0.1009493E+02  0.1477520E+03
  0.6900000E+00  0.3411367E+01  0.4753165E+02 -0.8953423E-07  0.2226856E-04  0.1009493E+02  0.1406426E+03
  0.7000000E+00  0.3411367E+01  0.4479799E+02 -0.8953423E-07  0.2004669E-04  0.1009493E+02  0.1325540E+03
  0.7100000E+00  0.3411367E+01  0.4177996E+02 -0.8953423E-07  0.1760324E-04  0.1009493E+02  0.1236243E+03
  0.7200000E+00  0.3411367E+01  0.3853041E+02 -0.8953423E-07  0.1498059E-04  0.1009493E+02  0.1140096E+03
  0.7300000E+00  0.3411367E+01  0.3510723E+02 -0.8953423E-07  0.1222588E-04  0.1009493E+02  0.1038811E+03
  0.7400000E+00  0.3411367E+01  0.3157198E+02 -0.8953423E-07  0.9389937E-05  0.1009493E+02  0.9342093E+02
  0.7500000E+00  0.3411367E+01  0.2798827E+02 -0.8953423E-07  0.6526129E-05  0.1009493E+02  0.8281763E+02
  0.7600000E+00  0.3411367E+01  0.2442012E+02 -0.8953423E-07  0.3689048E-05  0.1009493E+02  0.7226038E+02
  0.7700000E+00  0.3411367E+01  0.2092998E+02 -0.8953423E-07  0.9331760E-06  0.1009493E+02  0.6193390E+02
  0.7800000E+00  0.3411367E+01  0.1757696E+02 -0.8953423E-07 -0.1688430E-05  0.1009493E+02  0.5201320E+02
  0.7900000E+00  0.3411367E+01  0.1441503E+02 -0.8953423E-07 -0.4125470E-05  0.1009493E+02  0.4265791E+02
  0.8000000E+00  0.3411367E+01  0.1149132E+02 -0.8953423E-07 -0.6331711E-05  0.1009493E+02  0.3400735E+02
  0.8100000E+00  0.3411367E+01  0.8844669E+01 -0.8953423E-07 -0.8266141E-05  0.1009493E+02  0.2617658E+02
  0.8200000E+00  0.3411367E+01  0.6504513E+01 -0.8953423E-07 -0.9894019E-05  0.1009493E+02  0.1925265E+02
  0.8300000E+00  0.3411367E+01  0.4489911E+01 -0.8953423E-07 -0.1118785E-04  0.1009493E+02  0.1329184E+02
  0.8400000E+00  0.3411367E+01  0.2808948E+01 -0.8953423E-07 -0.1212809E-04  0.1009493E+02  0.8318129E+01
  0.8500000E+00  0.3411367E+01  0.1458749E+01 -0.8953423E-07 -0.1270367E-04  0.1009493E+02  0.4323053E+01
  0.8600000E+00  0.3411367E+01  0.4256068E+00 -0.8953423E-07 -0.1291235E-04  0.1009493E+02  0.1265960E+01
  0.8700000E+00  0.3411367E+01 -0.3144163E+00 -0.8953423E-07 -0.1276081E-04  0.1009493E+02 -0.9239258E+00
  0.8800000E+00  0.3411367E+01 -0.7944168E+00 -0.8953423E-07 -0.1226453E-04  0.1009493E+02 -0.2344600E+01
  0.8900000E+00  0.3411367E+01 -0.1055522E+01 -0.8953423E-07 -0.1144745E-04  0.1009493E+02 -0.3117674E+01
  0.9000000E+00  0.3411367E+01 -0.1145079E+01 -0.8953423E-07 -0.1034134E-04  0.1009493E+02 -0.3383240E+01
  0.9100000E+00  0.3411367E+01 -0.1114912E+01 -0.8953423E-07 -0.8985126E-05  0.1009493E+02 -0.3294681E+01
  0.9200000E+00  0.3411367E+01 -0.1019378E+01 -0.8953423E-07 -0.7423823E-05  0.1009493E+02 -0.3012762E+01
  0.9300000E+00  0.3411367E+01 -0.9132566E+00 -0.8953423E-07 -0.5707450E-05  0.1009493E+02 -0.2699591E+01
  0.9400000E+00  0.3411367E+01 -0.8495601E+00 -0.8953423E-07 -0.3889848E-05  0.1009493E+02 -0.2511983E+01
  0.9500000E+00  0.3411367E+01 -0.8775932E+00 -0.8953423E-07 -0.2027181E-05  0.1009493E+02 -0.2595839E+01
  0.9600000E+00  0.3411367E+01 -0.1041038E+01 -0.8953423E-07 -0.1766220E-06  0.1009493E+02 -0.3080337E+01
  0.9700000E+00  0.3411367E+01 -0.1376196E+01 -0.8953423E-07  0.1605142E-05  0.1009493E+02 -0.4072930E+01
  0.9800000E+00  0.3411367E+01 -0.1910650E+01 -0.8953423E-07  0.3263342E-05  0.1009493E+02 -0.5655149E+01
  0.9899999E+00  0.3411367E+01 -0.2661961E+01 -0.8953423E-07  0.4746520E-05  0.1009493E+02 -0.7879007E+01
  0.1000000E+01  0.3411367E+01 -0.3637244E+01 -0.8953423E-07  0.6007857E-05  0.1009493E+02 -0.1076546E+02
  0.1010000E+01  0.3411367E+01 -0.4832505E+01 -0.8953423E-07  0.7006332E-05  0.1009493E+02 -0.1430276E+02
  0.1020000E+01  0.3411367E+01 -0.6232848E+01 -0.8953423E-07  0.7707828E-05  0.1009493E+02 -0.1844671E+02
  0.1030000E+01  0.3411367E+01 -0.7812915E+01 -0.8953423E-07  0.8085953E-05  0.1009493E+02 -0.2312240E+02
  0.1040000E+01  0.3411367E+01 -0.9537713E+01 -0.8953423E-07  0.8122748E-05  0.1009493E+02 -0.2822619E+02
  0.1050000E+01  0.3411367E+01 -0.1136384E+02 -0.8953423E-07  0.7809127E-05  0.1009493E+02 -0.3362970E+02
  0.1060000E+01  0.3411367E+01 -0.1324098E+02 -0.8953423E-07  0.7145139E-05  0.1009493E+02 -0.3918399E+02
  0.1070000E+01  0.3411367E+01 -0.1511373E+02 -0.8953423E-07  0.6139937E-05  0.1009493E+02 -0.4472514E+02
  0.1080000E+01  0.3411367E+01 -0.1692344E+02 -0.8953423E-07  0.4811578E-05  0.1009493E+02 -0.5007977E+02
  0.1090000E+01  0.3411367E+01 -0.1861062E+02 -0.8953423E-07  0.3186531E-05  0.1009493E+02 -0.5507167E+02
  0.1100000E+01  0.3411367E+01 -0.2011677E+02 -0.8953423E-07  0.1299100E-05  0.1009493E+02 -0.5952782E+02
  0.1110000E+01  0.3411367E+01 -0.2138671E+02 -0.8953423E-07 -0.8095706E-06  0.1009493E+02 -0.6328498E+02
  0.1120000E+01  0.3411367E+01 -0.2237061E+02 -0.8953423E-07 -0.3092435E-05  0.1009493E+02 -0.6619569E+02
  0.1130000E+01  0.3411367E+01 -0.2302577E+02 -0.8953423E-07 -0.5497795E-05  0.1009493E+02 -0.6813366E+02
  0.1140000E+01  0.3411367E+01 -0.2331828E+02 -0.8953423E-07 -0.7970553E-05  0.1009493E+02 -0.6899863E+02
  0.1150000E+01  0.3411367E+01 -0.2322441E+02 -0.8953423E-07 -0.1045361E-04  0.1009493E+02 -0.6872026E+02
  0.1160000E+01  0.3411367E+01 -0.2273151E+02 -0.8953423E-07 -0.1288933E-04  0.1009493E+02 -0.6726121E+02
  0.1170000E+01  0.3411367E+01 -0.2183856E+02 -0.8953423E-07 -0.1522095E-04  0.1009493E+02 -0.6461848E+02
  0.1180000E+01  0.3411367E+01 -0.2055654E+02 -0.8953423E-07 -0.1739398E-04  0.1009493E+02 -0.6082457E+02
  0.1190000E+01  0.3411367E+01 -0.1890812E+02 -0.8953423E-07 -0.1935760E-04  0.1009493E+02 -0.5594660E+02
  0.1200000E+01  0.3411367E+01 -0.1692705E+02 -0.8953423E-07 -0.2106593E-04  0.1009493E+02 -0.5008437E+02
  0.1210000E+01  0.3411367E+01 -0.1465724E+02 -0.8953423E-07 -0.2247909E-04  0.1009493E+02 -0.4336789E+02
  0.1220000E+01  0.3411367E+01 -0.1215135E+02 -0.8953423E-07 -0.2356423E-04  0.1009493E+02 -0.3595291E+02
  0.1230000E+01  0.3411367E+01 -0.9469344E+01 -0.8953423E-07 -0.2429634E-04  0.1009493E+02 -0.2801692E+02
  0.1240000E+01  0.3411367E+01 -0.6676459E+01 -0.8953423E-07 -0.2465881E-04  0.1009493E+02 -0.1975294E+02
  0.1250000E+01  0.3411367E+01 -0.3841206E+01 -0.8953423E-07 -0.2464384E-04  0.1009493E+02 -0.1136370E+02
  0.1260000E+01  0.3411367E+01 -0.1033292E+01 -0.8953423E-07 -0.2425260E-04  0.1009493E+02 -0.3055402E+01
  0.1270000E+01  0.3411367E+01  0.1678509E+01 -0.8953423E-07 -0.2349513E-04  0.1009493E+02  0.4968406E+01
  0.1280000E+01  0.3411367E+01  0.4228604E+01 -0.8953423E-07 -0.2239010E-04  0.1009493E+02  0.1251371E+02
  0.1290000E+01  0.3411367E+01  0.6556548E+01 -0.8953423E-07 -0.2096432E-04  0.1009493E+02  0.1940161E+02
  0.1300000E+01  0.3411367E+01  0.8608779E+01 -0.8953423E-07 -0.1925194E-04  0.1009493E+02  0.2547368E+02
  0.1310000E+01  0.3411367E+01  0.1034042E+02 -0.8953423E-07 -0.1729370E-04  0.1009493E+02  0.3059710E+02
  0.1320000E+01  0.3411367E+01  0.1171632E+02 -0.8953423E-07 -0.1513573E-04  0.1009493E+02  0.3466793E+02
  0.1330000E+01  0.3411367E+01  0.1271229E+02 -0.8953423E-07 -0.1282853E-04  0.1009493E+02  0.3761447E+02
  0.1340000E+01  0.3411367E+01  0.1331543E+02 -0.8953423E-07 -0.1042556E-04  0.1009493E+02  0.3939876E+02
  0.1350000E+01  0.3411367E+01  0.1352465E+02 -0.8953423E-07 -0.7981914E-05  0.1009493E+02  0.4001744E+02
  0.1360000E+01  0.3411367E+01  0.1335031E+02 -0.8953423E-07 -0.5553033E-05  0.1009493E+02  0.3950125E+02
  0.1370000E+01  0.3411367E+01  0.1281378E+02 -0.8953423E-07 -0.3193156E-05  0.1009493E+02  0.3791339E+02
  0.1380000E+01  0.3411367E+01  0.1194665E+02 -0.8953423E-07 -0.9540527E-06  0.1009493E+02  0.3534739E+02
  0.1390000E+01  0.3411367E+01  0.1078939E+02 -0.8953423E-07  0.1116291E-05  0.1009493E+02  0.3192288E+02
  0.1400000E+01  0.3411367E+01  0.9389965E+01 -0.8953423E-07  0.2974803E-05  0.1009493E+02  0.2778198E+02
  0.1410000E+01  0.3411367E+01  0.7802345E+01 -0.8953423E-07  0.4584481E-05  0.1009493E+02  0.2308427E+02
  0.1420000E+01  0.3411367E+01  0.6084411E+01 -0.8953423E-07  0.5915192E-05  0.1009493E+02  0.1800098E+02
  0.1430000E+01  0.3411367E+01  0.4296296E+01 -0.8953423E-07  0.6944457E-05  0.1009493E+02  0.1271013E+02
  0.1440000E+01  0.3411367E+01  0.2498194E+01 -0.8953423E-07  0.7657962E-05  0.1009493E+02  0.7389743E+01
  0.1450000E+01  0.3411367E+01  0.7486975E+00 -0.8953423E-07  0.8049845E-05  0.1009493E+02  0.2213274E+01
  0.1460000E+01  0.3411367E+01 -0.8971757E+00 -0.8953423E-07  0.8122822E-05  0.1009493E+02 -0.2656553E+01
  0.1470000E+01  0.3411367E+01 -0.2389473E+01 -0.8953423E-07  0.7888032E-05  0.1009493E+02 -0.7071924E+01
  0.1480000E+01  0.3411367E+01 -0.3684979E+01 -0.8953423E-07  0.7364749E-05  0.1009493E+02 -0.1090496E+02
  0.1490000E+01  0.3411367E+01 -0.4748176E+01 -0.8953423E-07  0.6579784E-05  0.1009493E+02 -0.1405060E+02
  0.1500000E+01  0.3411367E+01 -0.5552207E+01 -0.8953423E-07  0.5566788E-05  0.1009493E+02 -0.1642936E+02
  0.1510000E+01  0.3411367E+01 -0.6079548E+01 -0.8953423E-07  0.4365303E-05  0.1009493E+02 -0.1798939E+02
  0.1520000E+01  0.3411367E+01 -0.6322221E+01 -0.8953423E-07  0.3019730E-05  0.1009493E+02 -0.1870710E+02
  0.1530000E+01  0.3411367E+01 -0.6281767E+01 -0.8953423E-07  0.1578144E-05  0.1009493E+02 -0.1858707E+02
  0.1540000E+01  0.3411367E+01 -0.5968867E+01 -0.8953423E-07  0.9100464E-07  0.1009493E+02 -0.1766091E+02
  0.1550000E+01  0.3411367E+01 -0.5402777E+01 -0.8953423E-07 -0.1390162E-05  0.1009493E+02 -0.1598559E+02
  0.1560000E+01  0.3411367E+01 -0.4610265E+01 -0.8953423E-07 -0.2814136E-05  0.1009493E+02 -0.1364030E+02
  0.1570000E+01  0.3411367E+01 -0.3624737E+01 -0.8953423E-07 -0.4131335E-05  0.1009493E+02 -0.1072398E+02
  0.1580000E+01  0.3411367E+01 -0.2484685E+01 -0.8953423E-07 -0.5295150E-05  0.1009493E+02 -0.7350408E+01
  0.1590000E+01  0.3411367E+01 -0.1232451E+01 -0.8953423E-07 -0.6263128E-05  0.1009493E+02 -0.3644960E+01
  0.1600000E+01  0.3411367E+01  0.8737701E-01 -0.8953423E-07 -0.6998125E-05  0.1009493E+02  0.2604518E+00
  0.1610000E+01  0.3411367E+01  0.1429484E+01 -0.8953423E-07 -0.7469266E-05  0.1009493E+02  0.4231758E+01
  0.1620000E+01  0.3411367E+01  0.2749150E+01 -0.8953423E-07 -0.7652772E-05  0.1009493E+02  0.8136617E+01
  0.1630000E+01  0.3411367E+01  0.4003992E+01 -0.8953423E-07 -0.7532570E-05  0.1009493E+02  0.1184965E+02
  0.1640000E+01  0.3411367E+01  0.5154979E+01 -0.8953423E-07 -0.7100755E-05  0.1009493E+02  0.1525529E+02
  0.1650000E+01  0.3411367E+01  0.6167567E+01 -0.8953423E-07 -0.6357797E-05  0.1009493E+02  0.1825141E+02
  0.1660000E+01  0.3411367E+01  0.7012847E+01 -0.8953423E-07 -0.5312496E-05  0.1009493E+02  0.2075246E+02
  0.1670000E+01  0.3411367E+01  0.7668015E+01 -0.8953423E-07 -0.3981843E-05  0.1009493E+02  0.2269089E+02
  0.1680000E+01  0.3411367E+01  0.8117003E+01 -0.8953423E-07 -0.2390531E-05  0.1009493E+02  0.2401928E+02
  0.1690000E+01  0.3411367E+01  0.8350689E+01 -0.8953423E-07 -0.5703721E-06  0.1009493E+02  0.2471054E+02
  0.1700000E+01  0.3411367E+01  0.8366778E+01 -0.8953423E-07  0.1440563E-05  0.1009493E+02  0.2475793E+02
  0.1710000E+01  0.3411367E+01  0.8169772E+01 -0.8953423E-07  0.3598875E-05  0.1009493E+02  0.2417477E+02
  0.1720000E+01  0.3411367E+01  0.7770435E+01 -0.8953423E-07  0.5856997E-05  0.1009493E+02  0.2299290E+02
  0.1730000E+01  0.3411367E+01  0.7185106E+01 -0.8953423E-07  0.8164368E-05  0.1009493E+02  0.2126069E+02
  0.1740000E+01  0.3411367E+01  0.6435005E+01 -0.8953423E-07  0.1046868E-04  0.1009493E+02  0.1904095E+02
  0.1750000E+01  0.3411367E+01  0.5545362E+01 -0.8953423E-07  0.1271736E-04  0.1009493E+02  0.1640829E+02
  0.1760000E+01  0.3411367E+01  0.4544361E+01 -0.8953423E-07  0.1485882E-04  0.1009493E+02  0.1344613E+02
  0.1770000E+01  0.3411367E+01  0.3462091E+01 -0.8953423E-07  0.1684377E-04  0.1009493E+02  0.1024353E+02
  0.1780000E+01  0.3411367E+01  0.2329680E+01 -0.8953423E-07  0.1862646E-04  0.1009493E+02  0.6892550E+01
  0.1790000E+01  0.3411367E+01  0.1178025E+01 -0.8953423E-07  0.2016590E-04  0.1009493E+02  0.3484679E+01
  0.1800000E+01  0.3411367E+01  0.3706903E-01 -0.8953423E-07  0.2142683E-04  0.1009493E+02  0.1084719E+00
  0.1810000E+01  0.3411367E+01 -0.1065101E+01 -0.8953423E-07  0.2238059E-04  0.1009493E+02 -0.3152941E+01
  0.1820000E+01  0.3411367E+01 -0.2103104E+01 -0.8953423E-07  0.2300586E-04  0.1009493E+02 -0.6224469E+01
  0.1830000E+01  0.3411367E+01 -0.3054693E+01 -0.8953423E-07  0.2328917E-04  0.1009493E+02 -0.9040261E+01
  0.1840000E+01  0.3411367E+01 -0.3901320E+01 -0.8953423E-07  0.2322512E-04  0.1009493E+02 -0.1154541E+02
  0.1850000E+01  0.3411367E+01 -0.4628468E+01 -0.8953423E-07  0.2281655E-04  0.1009493E+02 -0.1369703E+02
  0.1860000E+01  0.3411367E+01 -0.5225680E+01 -0.8953423E-07  0.2207440E-04  0.1009493E+02 -0.1546412E+02
  0.1870000E+01  0.3411367E+01 -0.5686546E+01 -0.8953423E-07  0.2101732E-04  0.1009493E+02 -0.1682773E+02
  0.1880000E+01  0.3411367E+01 -0.6008759E+01 -0.8953423E-07  0.1967116E-04  0.1009493E+02 -0.1778106E+02
  0.1890000E+01  0.3411367E+01 -0.6193629E+01 -0.8953423E-07  0.1806824E-04  0.1009493E+02 -0.1832794E+02
  0.1900000E+01  0.3411367E+01 -0.6245862E+01 -0.8953423E-07  0.1624646E-04  0.1009493E+02 -0.1848231E+02
  0.1910000E+01  0.3411367E+01 -0.6172957E+01 -0.8953423E-07  0.1424825E-04  0.1009493E+02 -0.1826640E+02
  0.1920000E+01  0.3411367E+01 -0.5984955E+01 -0.8953423E-07  0.1211946E-04  0.1009493E+02 -0.1770990E+02
  0.1930000E+01  0.3411367E+01 -0.5693710E+01 -0.8953423E-07  0.9908090E-05  0.1009493E+02 -0.1684785E+02
  0.1940000E+01  0.3411367E+01 -0.5312280E+01 -0.8953423E-07  0.7663079E-05  0.1009493E+02 -0.1571895E+02
  0.1950000E+01  0.3411367E+01 -0.4854735E+01 -0.8953423E-07  0.5432989E-05  0.1009493E+02 -0.1436481E+02
  0.1960000E+01  0.3411367E+01 -0.4335255E+01 -0.8953423E-07  0.3264768E-05  0.1009493E+02 -0.1282741E+02
  0.1970000E+01  0.3411367E+01 -0.3768065E+01 -0.8953423E-07  0.1202536E-05  0.1009493E+02 -0.1114887E+02
  0.1980000E+01  0.3411367E+01 -0.3166806E+01 -0.8953423E-07 -0.7135014E-06  0.1009493E+02 -0.9369492E+01
  0.1990000E+01  0.3411367E+01 -0.2544295E+01 -0.8953423E-07 -0.2448045E-05  0.1009493E+02 -0.7527273E+01
  0.2000000E+01  0.3411367E+01 -0.1912492E+01 -0.8953423E-07 -0.3971513E-05  0.1009493E+02 -0.5657558E+01
  0.2010000E+01  0.3411367E+01 -0.1282066E+01 -0.8953423E-07 -0.5260770E-05  0.1009493E+02 -0.3791943E+01
  0.2020000E+01  0.3411367E+01 -0.6625423E+00 -0.8953423E-07 -0.6299562E-05  0.1009493E+02 -0.1958658E+01
  0.2030000E+01  0.3411367E+01 -0.6225884E-01 -0.8953423E-07 -0.7078834E-05  0.1009493E+02 -0.1823342E+00
  0.2040000E+01  0.3411367E+01  0.5115706E+00 -0.8953423E-07 -0.7596786E-05  0.1009493E+02  0.1515668E+01
  0.2050000E+01  0.3411367E+01  0.1052768E+01 -0.8953423E-07 -0.7858805E-05  0.1009493E+02  0.3117060E+01
  0.2060000E+01  0.3411367E+01  0.1555933E+01 -0.8953423E-07 -0.7877087E-05  0.1009493E+02  0.4605884E+01
  0.2070000E+01  0.3411367E+01  0.2016473E+01 -0.8953423E-07 -0.7670193E-05  0.1009493E+02  0.5968507E+01
  0.2080000E+01  0.3411367E+01  0.2430272E+01 -0.8953423E-07 -0.7262357E-05  0.1009493E+02  0.7192790E+01
  0.2090000E+01  0.3411367E+01  0.2793543E+01 -0.8953423E-07 -0.6682659E-05  0.1009493E+02  0.8267518E+01
  0.2100000E+01  0.3411367E+01  0.3102942E+01 -0.8953423E-07 -0.5964141E-05  0.1009493E+02  0.9182775E+01
  0.2110000E+01  0.3411367E+01  0.3355131E+01 -0.8953423E-07 -0.5142670E-05  0.1009493E+02  0.9928746E+01
  0.2120000E+01  0.3411367E+01  0.3547004E+01 -0.8953423E-07 -0.4255937E-05  0.1009493E+02  0.1049618E+02
  0.2130000E+01  0.3411367E+01  0.3675615E+01 -0.8953423E-07 -0.3342265E-05  0.1009493E+02  0.1087639E+02
  0.2140000E+01  0.3411367E+01  0.3738196E+01 -0.8953423E-07 -0.2439497E-05  0.1009493E+02  0.1106123E+02
  0.2150000E+01  0.3411367E+01  0.3732307E+01 -0.8953423E-07 -0.1583878E-05  0.1009493E+02  0.1104346E+02
  0.2160000E+01  0.3411367E+01  0.3656023E+01 -0.8953423E-07 -0.8090891E-06  0.1009493E+02  0.1081739E+02
  0.2170000E+01  0.3411367E+01  0.3508132E+01 -0.8953423E-07 -0.1452306E-06  0.1009493E+02  0.1037944E+02
  0.2180000E+01  0.3411367E+01  0.3288289E+01 -0.8953423E-07  0.3819922E-06  0.1009493E+02  0.9728617E+01
  0.2190000E+01  0.3411367E+01  0.2997267E+01 -0.8953423E-07  0.7518771E-06  0.1009493E+02  0.8867190E+01
  0.2200000E+01  0.3411367E+01  0.2637182E+01 -0.8953423E-07  0.9493104E-06  0.1009493E+02  0.7801445E+01
  0.2210000E+01  0.3411367E+01  0.2211664E+01 -0.8953423E-07  0.9651050E-06  0.1009493E+02  0.6542160E+01
  0.2220000E+01  0.3411367E+01  0.1726158E+01 -0.8953423E-07  0.7961478E-06  0.1009493E+02  0.5105425E+01
  0.2230000E+01  0.3411367E+01  0.1187811E+01 -0.8953423E-07  0.4453853E-06  0.1009493E+02  0.3512361E+01
  0.2240000E+01  0.3411367E+01  0.6055762E+00 -0.8953423E-07 -0.7834237E-07  0.1009493E+02  0.1789512E+01
  0.2250000E+01  0.3411367E+01 -0.9530466E-02 -0.8953423E-07 -0.7606970E-06  0.1009493E+02 -0.3052760E-01
  0.2260000E+01  0.3411367E+01 -0.6449239E+00 -0.8953423E-07 -0.1582381E-05  0.1009493E+02 -0.1910562E+01
  0.2270000E+01  0.3411367E+01 -0.1286476E+01 -0.8953423E-07 -0.2519717E-05  0.1009493E+02 -0.3808740E+01
  0.2280000E+01  0.3411367E+01 -0.1918741E+01 -0.8953423E-07 -0.3545499E-05  0.1009493E+02 -0.5679387E+01
  0.2290000E+01  0.3411367E+01 -0.2525410E+01 -0.8953423E-07 -0.4629847E-05  0.1009493E+02 -0.7474247E+01
  0.2300000E+01  0.3411367E+01 -0.3089688E+01 -0.8953423E-07 -0.5741135E-05  0.1009493E+02 -0.9143617E+01
  0.2310000E+01  0.3411367E+01 -0.3594758E+01 -0.8953423E-07 -0.6846934E-05  0.1009493E+02 -0.1063776E+02
  0.2320000E+01  0.3411367E+01 -0.4024369E+01 -0.8953423E-07 -0.7915076E-05  0.1009493E+02 -0.1190859E+02
  0.2330000E+01  0.3411367E+01 -0.4363475E+01 -0.8953423E-07 -0.8914495E-05  0.1009493E+02 -0.1291162E+02
  0.2340000E+01  0.3411367E+01 -0.4598496E+01 -0.8953423E-07 -0.9816235E-05  0.1009493E+02 -0.1360666E+02
  0.2350000E+01  0.3411367E+01 -0.4718214E+01 -0.8953423E-07 -0.1059423E-04  0.1009493E+02 -0.1396052E+02
  0.2360000E+01  0.3411367E+01 -0.4714120E+01 -0.8953423E-07 -0.1122606E-04  0.1009493E+02 -0.1394804E+02
  0.2370000E+01  0.3411367E+01 -0.4580877E+01 -0.8953423E-07 -0.1169352E-04  0.1009493E+02 -0.1355344E+02
  0.2380000E+01  0.3411367E+01 -0.4316564E+01 -0.8953423E-07 -0.1198318E-04  0.1009493E+02 -0.1277102E+02
  0.2390000E+01  0.3411367E+01 -0.3923246E+01 -0.8953423E-07 -0.1208663E-04  0.1009493E+02 -0.1160695E+02
  0.2400000E+01  0.3411367E+01 -0.3406821E+01 -0.8953423E-07 -0.1200069E-04  0.1009493E+02 -0.1007866E+02
  0.2410000E+01  0.3411367E+01 -0.2777071E+01 -0.8953423E-07 -0.1172749E-04  0.1009493E+02 -0.8215114E+01
  0.2420000E+01  0.3411367E+01 -0.2047798E+01 -0.8953423E-07 -0.1127420E-04  0.1009493E+02 -0.6057136E+01
  0.2430000E+01  0.3411367E+01 -0.1236255E+01 -0.8953423E-07 -0.1065287E-04  0.1009493E+02 -0.3655777E+01
  0.2440000E+01  0.3411367E+01 -0.3628618E+00 -0.8953423E-07 -0.9879978E-05  0.1009493E+02 -0.1071469E+01
  0.2450000E+01  0.3411367E+01  0.5491031E+00 -0.8953423E-07 -0.8975879E-05  0.1009493E+02  0.1626877E+01
  0.2460000E+01  0.3411367E+01  0.1474505E+01 -0.8953423E-07 -0.7964183E-05  0.1009493E+02  0.4364944E+01
  0.2470000E+01  0.3411367E+01  0.2386910E+01 -0.8953423E-07 -0.6870979E-05  0.1009493E+02  0.7064513E+01
  0.2480000E+01  0.3411367E+01  0.3259166E+01 -0.8953423E-07 -0.5724105E-05  0.1009493E+02  0.9645209E+01
  0.2490000E+01  0.3411367E+01  0.4064604E+01 -0.8953423E-07 -0.4552332E-05  0.1009493E+02  0.1202816E+02
  0.2500000E+01  0.3411367E+01  0.4777666E+01 -0.8953423E-07 -0.3384501E-05  0.1009493E+02  0.1413776E+02
  0.2510000E+01  0.3411367E+01  0.5374905E+01 -0.8953423E-07 -0.2248730E-05  0.1009493E+02  0.1590461E+02
  0.2520000E+01  0.3411367E+01  0.5835660E+01 -0.8953423E-07 -0.1171649E-05  0.1009493E+02  0.1726760E+02
  0.2530000E+01  0.3411367E+01  0.6142926E+01 -0.8953423E-07 -0.1776434E-06  0.1009493E+02  0.1817642E+02
  0.2540000E+01  0.3411367E+01  0.6283852E+01 -0.8953423E-07  0.7117334E-06  0.1009493E+02  0.1859305E+02
  0.2550000E+01  0.3411367E+01  0.6250505E+01 -0.8953423E-07  0.1478332E-05  0.1009493E+02  0.1849405E+02
  0.2560000E+01  0.3411367E+01  0.6040000E+01 -0.8953423E-07  0.2107827E-05  0.1009493E+02  0.1787087E+02
  0.2570000E+01  0.3411367E+01  0.5654788E+01 -0.8953423E-07  0.2590072E-05  0.1009493E+02  0.1673076E+02
  0.2580000E+01  0.3411367E+01  0.5102732E+01 -0.8953423E-07  0.2919257E-05  0.1009493E+02  0.1509705E+02
  0.2590000E+01  0.3411367E+01  0.4397122E+01 -0.8953423E-07  0.3093946E-05  0.1009493E+02  0.1300900E+02
  0.2600000E+01  0.3411367E+01  0.3555955E+01 -0.8953423E-07  0.3117114E-05  0.1009493E+02  0.1051992E+02
  0.2610000E+01  0.3411367E+01  0.2601893E+01 -0.8953423E-07  0.2995863E-05  0.1009493E+02  0.7696842E+01
  0.2620000E+01  0.3411367E+01  0.1561498E+01 -0.8953423E-07  0.2741172E-05  0.1009493E+02  0.4618365E+01
  0.2630000E+01  0.3411367E+01  0.4642287E+00 -0.8953423E-07  0.2367563E-05  0.1009493E+02  0.1371647E+01
  0.2640000E+01  0.3411367E+01 -0.6581159E+00 -0.8953423E-07  0.1892543E-05  0.1009493E+02 -0.1949182E+01
  0.2650000E+01  0.3411367E+01 -0.1772596E+01 -0.8953423E-07  0.1336115E-05  0.1009493E+02 -0.5246714E+01
  0.2660000E+01  0.3411367E+01 -0.2846045E+01 -0.8953423E-07  0.7201422E-06  0.1009493E+02 -0.8422780E+01
  0.2670000E+01  0.3411367E+01 -0.3846154E+01 -0.8953423E-07  0.6777262E-07  0.1009493E+02 -0.1138179E+02
  0.2680000E+01  0.3411367E+01 -0.4742520E+01 -0.8953423E-07 -0.5972635E-06  0.1009493E+02 -0.1403381E+02
  0.2690000E+01  0.3411367E+01 -0.5507642E+01 -0.8953423E-07 -0.1251301E-05  0.1009493E+02 -0.1629745E+02
  0.2700000E+01  0.3411367E+01 -0.6117655E+01 -0.8953423E-07 -0.1871248E-05  0.1009493E+02 -0.1810213E+02
  0.2710000E+01  0.3411367E+01 -0.6553483E+01 -0.8953423E-07 -0.2435340E-05  0.1009493E+02 -0.1939138E+02
  0.2720000E+01  0.3411367E+01 -0.6801056E+01 -0.8953423E-07 -0.2923595E-05  0.1009493E+02 -0.2012361E+02
  0.2730000E+01  0.3411367E+01 -0.6852099E+01 -0.8953423E-07 -0.3318231E-05  0.1009493E+02 -0.2027434E+02
  0.2740000E+01  0.3411367E+01 -0.6704321E+01 -0.8953423E-07 -0.3604195E-05  0.1009493E+02 -0.1983678E+02
  0.2750000E+01  0.3411367E+01 -0.6361501E+01 -0.8953423E-07 -0.3769381E-05  0.1009493E+02 -0.1882213E+02
  0.2760000E+01  0.3411367E+01 -0.5833400E+01 -0.8953423E-07 -0.3804932E-05  0.1009493E+02 -0.1725927E+02
  0.2770000E+01  0.3411367E+01 -0.5135546E+01 -0.8953423E-07 -0.3705341E-05  0.1009493E+02 -0.1519417E+02
  0.2780000E+01  0.3411367E+01 -0.4288707E+01 -0.8953423E-07 -0.3468563E-05  0.1009493E+02 -0.1268828E+02