VARIABLES="w (rad/s)"
"abs(F   1   1)" "angle(F   1   1)"
"abs(F   1   2)" "angle(F   1   2)"
"abs(F   1   3)" "angle(F   1   3)"
Zone t="Diffraction force - beta =   0.000 deg",I=    32,F=POINT
  0.1000000E+00  0.2678866E+01 -0.1570806E+01  0.1135059E+05 -0.5731318E-06  0.9023632E+01 -0.1570808E+01
  0.2000000E+00  0.1070714E+02 -0.1570771E+01  0.1133134E+05 -0.9154155E-05  0.3606696E+02 -0.1570802E+01
  0.3000000E+00  0.2406056E+02 -0.1570793E+01  0.1129901E+05 -0.4621554E-04  0.8105066E+02 -0.1570795E+01
  0.4000000E+00  0.4270045E+02 -0.1570794E+01  0.1125325E+05 -0.1454710E-03  0.1438418E+03 -0.1570796E+01
  0.5000000E+00  0.6657509E+02 -0.1570799E+01  0.1119395E+05 -0.3532804E-03  0.2242728E+03 -0.1570796E+01
  0.6000001E+00  0.9560162E+02 -0.1570794E+01  0.1112088E+05 -0.7277577E-03  0.3220690E+03 -0.1570793E+01
  0.7000000E+00  0.1297670E+03 -0.1570789E+01  0.1103330E+05 -0.1337572E-02  0.4371943E+03 -0.1570788E+01
  0.8000001E+00  0.1689503E+03 -0.1570778E+01  0.1093241E+05 -0.2260858E-02  0.5692440E+03 -0.1570780E+01
  0.9000000E+00  0.2128724E+03 -0.1570763E+01  0.1081760E+05 -0.3583096E-02  0.7172875E+03 -0.1570763E+01
  0.1000000E+01  0.2615233E+03 -0.1570734E+01  0.1069002E+05 -0.5396257E-02  0.8812901E+03 -0.1570734E+01
  0.1100000E+01  0.3144970E+03 -0.1570689E+01  0.1054878E+05 -0.7795112E-02  0.1059863E+04 -0.1570689E+01
  0.1200000E+01  0.3724220E+03 -0.1570619E+01  0.1039614E+05 -0.1087845E-01  0.1255223E+04 -0.1570618E+01
  0.1300000E+01  0.4336541E+03 -0.1570516E+01  0.1023119E+05 -0.1474254E-01  0.1461690E+04 -0.1570516E+01
  0.1400000E+01  0.4995807E+03 -0.1570371E+01  0.1005589E+05 -0.1948403E-01  0.1684084E+04 -0.1570372E+01
  0.1500000E+01  0.5692402E+03 -0.1570172E+01  0.9872734E+04 -0.2520035E-01  0.1919168E+04 -0.1570172E+01
  0.1600000E+01  0.6422120E+03 -0.1569906E+01  0.9678774E+04 -0.3196922E-01  0.2165400E+04 -0.1569906E+01
  0.1700000E+01  0.7178480E+03 -0.1569559E+01  0.9477979E+04 -0.3987879E-01  0.2420684E+04 -0.1569559E+01
  0.1800000E+01  0.7974525E+03 -0.1569119E+01  0.9271974E+04 -0.4900739E-01  0.2689547E+04 -0.1569119E+01
  0.1900000E+01  0.8795809E+03 -0.1568571E+01  0.9061520E+04 -0.5942263E-01  0.2966921E+04 -0.1568571E+01
  0.2000000E+01  0.9633716E+03 -0.1567901E+01  0.8846557E+04 -0.7117725E-01  0.3249987E+04 -0.1567901E+01
  0.2100000E+01  0.1049011E+04 -0.1567099E+01  0.8625878E+04 -0.8429736E-01  0.3539382E+04 -0.1567099E+01
  0.2200000E+01  0.1136575E+04 -0.1566161E+01  0.8407200E+04 -0.9888141E-01  0.3835381E+04 -0.1566161E+01
  0.2300000E+01  0.1225419E+04 -0.1565082E+01  0.8188796E+04 -0.1149507E+00  0.4135904E+04 -0.1565083E+01
  0.2400000E+01  0.1315024E+04 -0.1563866E+01  0.7969119E+04 -0.1325056E+00  0.4439087E+04 -0.1563866E+01
  0.2500000E+01  0.1404292E+04 -0.1562518E+01  0.7749781E+04 -0.1515624E+00  0.4741098E+04 -0.1562518E+01
  0.2600000E+01  0.1492145E+04 -0.1561056E+01  0.7531104E+04 -0.1721261E+00  0.5038505E+04 -0.1561056E+01
  0.2700000E+01  0.1579743E+04 -0.1559529E+01  0.7316552E+04 -0.1942610E+00  0.5335269E+04 -0.1559529E+01
  0.2800000E+01  0.1666306E+04 -0.1557976E+01  0.7104721E+04 -0.2179276E+00  0.5628668E+04 -0.1557976E+01
  0.2900000E+01  0.1750246E+04 -0.1556442E+01  0.6898219E+04 -0.2431893E+00  0.5913240E+04 -0.1556443E+01
  0.3000000E+01  0.1830995E+04 -0.1554999E+01  0.6696054E+04 -0.2700222E+00  0.6187227E+04 -0.1555000E+01
  0.3100000E+01  0.1908046E+04 -0.1553730E+01  0.6496790E+04 -0.2983510E+00  0.6448811E+04 -0.1553730E+01
  0.3200000E+01  0.1980716E+04 -0.1552732E+01  0.6299248E+04 -0.3280590E+00  0.6695675E+04 -0.1552732E+01
