VARIABLES="w (rad/s)"
"abs(F   1   1)" "angle(F   1   1)"
"abs(F   1   2)" "angle(F   1   2)"
"abs(F   1   3)" "angle(F   1   3)"
Zone t="FKforce - beta =   0.000",I=    32,F=POINT
  0.1000000E+00  0.4031197E+03 -0.1570796E+01  0.3536333E+06  0.3011765E-10  0.1906974E+04 -0.1570793E+01
  0.2000000E+00  0.1608658E+04 -0.1570794E+01  0.3524206E+06 -0.1199021E-09  0.7611957E+04 -0.1570797E+01
  0.3000000E+00  0.3605089E+04 -0.1570796E+01  0.3503907E+06  0.4469616E-10  0.1706666E+05 -0.1570797E+01
  0.4000000E+00  0.6372979E+04 -0.1570796E+01  0.3475321E+06 -0.3533500E-09  0.3018925E+05 -0.1570797E+01
  0.5000000E+00  0.9884698E+04 -0.1570796E+01  0.3438304E+06 -0.1252488E-10  0.4686212E+05 -0.1570796E+01
  0.6000001E+00  0.1410390E+05 -0.1570796E+01  0.3392656E+06 -0.1646190E-09  0.6692910E+05 -0.1570796E+01
  0.7000000E+00  0.1898513E+05 -0.1570796E+01  0.3338145E+06 -0.1952512E-09  0.9019216E+05 -0.1570796E+01
  0.8000001E+00  0.2447308E+05 -0.1570796E+01  0.3274547E+06 -0.6762195E-10  0.1164074E+06 -0.1570796E+01
  0.9000000E+00  0.3050205E+05 -0.1570796E+01  0.3201597E+06 -0.4821845E-10  0.1452807E+06 -0.1570796E+01
  0.1000000E+01  0.3699543E+05 -0.1570796E+01  0.3119065E+06 -0.4171665E-09  0.1764630E+06 -0.1570796E+01
  0.1100000E+01  0.4386470E+05 -0.1570796E+01  0.3026725E+06 -0.9334381E-10  0.2095483E+06 -0.1570796E+01
  0.1200000E+01  0.5100967E+05 -0.1570796E+01  0.2924372E+06 -0.2013949E-08  0.2440673E+06 -0.1570796E+01
  0.1300000E+01  0.5831756E+05 -0.1570796E+01  0.2811905E+06 -0.7317291E-09  0.2794868E+06 -0.1570796E+01
  0.1400000E+01  0.6566359E+05 -0.1570796E+01  0.2689275E+06  0.6941712E-09  0.3152110E+06 -0.1570796E+01
  0.1500000E+01  0.7291078E+05 -0.1570796E+01  0.2556553E+06 -0.2839002E-08  0.3505762E+06 -0.1570796E+01
  0.1600000E+01  0.7991163E+05 -0.1570796E+01  0.2413952E+06 -0.1123424E-07  0.3848617E+06 -0.1570796E+01
  0.1700000E+01  0.8650907E+05 -0.1570796E+01  0.2261850E+06  0.5845438E-08  0.4172919E+06 -0.1570796E+01
  0.1800000E+01  0.9253831E+05 -0.1570796E+01  0.2100823E+06 -0.1147422E-07  0.4470495E+06 -0.1570796E+01
  0.1900000E+01  0.9783088E+05 -0.1570796E+01  0.1931665E+06 -0.1059184E-07  0.4732882E+06 -0.1570796E+01
  0.2000000E+01  0.1022172E+06 -0.1570796E+01  0.1755432E+06 -0.7809511E-08  0.4951538E+06 -0.1570796E+01
  0.2100000E+01  0.1055320E+06 -0.1570796E+01  0.1573433E+06 -0.1179188E-07  0.5118056E+06 -0.1570796E+01
  0.2200000E+01  0.1076204E+06 -0.1570796E+01  0.1387266E+06  0.6702627E-10  0.5224479E+06 -0.1570796E+01
  0.2300000E+01  0.1083428E+06 -0.1570796E+01  0.1198808E+06 -0.2888728E-08  0.5263621E+06 -0.1570796E+01
  0.2400000E+01  0.1075833E+06 -0.1570796E+01  0.1010210E+06 -0.6207034E-09  0.5229435E+06 -0.1570796E+01
  0.2500000E+01  0.1052573E+06 -0.1570796E+01  0.8238785E+05  0.7856819E-09  0.5117396E+06 -0.1570796E+01
  0.2600000E+01  0.1013181E+06 -0.1570796E+01  0.6424276E+05 -0.2133948E-09  0.4924936E+06 -0.1570796E+01
  0.2700000E+01  0.9576623E+05 -0.1570796E+01  0.4686234E+05  0.2653711E-07  0.4651792E+06 -0.1570796E+01
  0.2800000E+01  0.8865431E+05 -0.1570796E+01  0.3053114E+05 -0.4763508E-09  0.4300422E+06 -0.1570796E+01
  0.2900000E+01  0.8009377E+05 -0.1570796E+01  0.1553178E+05 -0.1276614E-06  0.3876218E+06 -0.1570796E+01
  0.3000000E+01  0.7025797E+05 -0.1570796E+01  0.2134033E+04 -0.9119315E-06  0.3387752E+06 -0.1570796E+01
  0.3100000E+01  0.5938266E+05 -0.1570796E+01  0.9418031E+04 -0.3141593E+01  0.2846788E+06 -0.1570796E+01
  0.3200000E+01  0.4776336E+05 -0.1570796E+01  0.1891924E+05 -0.3141593E+01  0.2268165E+06 -0.1570796E+01
