VARIABLES="w (rad/s)"
"abs(F   1   1)" "angle(F   1   1)"
"abs(F   1   2)" "angle(F   1   2)"
"abs(F   1   3)" "angle(F   1   3)"
Zone t="Diffraction force - beta =   0.000 deg",I=    32,F=POINT
  0.1000000E+00  0.2139258E+02 -0.1570752E+01  0.4537653E+05 -0.2325667E-05  0.8073084E+02 -0.1570798E+01
  0.2000000E+00  0.8544739E+02 -0.1570795E+01  0.4522132E+05 -0.3707272E-04  0.3224823E+03 -0.1570790E+01
  0.3000000E+00  0.1916857E+03 -0.1570794E+01  0.4495891E+05 -0.1865913E-03  0.7234155E+03 -0.1570794E+01
  0.4000000E+00  0.3399624E+03 -0.1570793E+01  0.4458689E+05 -0.5848105E-03  0.1283256E+04 -0.1570794E+01
  0.5000000E+00  0.5288101E+03 -0.1570787E+01  0.4410384E+05 -0.1412174E-02  0.1996427E+04 -0.1570787E+01
  0.6000001E+00  0.7567814E+03 -0.1570772E+01  0.4351018E+05 -0.2888449E-02  0.2857652E+04 -0.1570771E+01
  0.7000000E+00  0.1023954E+04 -0.1570737E+01  0.4280789E+05 -0.5263836E-02  0.3867779E+04 -0.1570737E+01
  0.8000001E+00  0.1327345E+04 -0.1570670E+01  0.4200241E+05 -0.8808773E-02  0.5015651E+04 -0.1570669E+01
  0.9000000E+00  0.1665626E+04 -0.1570547E+01  0.4110070E+05 -0.1380212E-01  0.6295896E+04 -0.1570547E+01
  0.1000000E+01  0.2036475E+04 -0.1570344E+01  0.4011311E+05 -0.2052273E-01  0.7701225E+04 -0.1570345E+01
  0.1100000E+01  0.2436621E+04 -0.1570030E+01  0.3905187E+05 -0.2923597E-01  0.9218437E+04 -0.1570030E+01
  0.1200000E+01  0.2864202E+04 -0.1569568E+01  0.3792579E+05 -0.4018612E-01  0.1084120E+05 -0.1569568E+01
  0.1300000E+01  0.3316930E+04 -0.1568919E+01  0.3675531E+05 -0.5360277E-01  0.1256218E+05 -0.1568919E+01
  0.1400000E+01  0.3789185E+04 -0.1568047E+01  0.3554623E+05 -0.6965750E-01  0.1435806E+05 -0.1568047E+01
  0.1500000E+01  0.4276984E+04 -0.1566920E+01  0.3431245E+05 -0.8851749E-01  0.1621629E+05 -0.1566921E+01
  0.1600000E+01  0.4778758E+04 -0.1565525E+01  0.3307281E+05 -0.1103247E+00  0.1813039E+05 -0.1565525E+01
  0.1700000E+01  0.5285887E+04 -0.1563861E+01  0.3183252E+05 -0.1351474E+00  0.2006781E+05 -0.1563862E+01
  0.1800000E+01  0.5794559E+04 -0.1561967E+01  0.3059732E+05 -0.1630323E+00  0.2201336E+05 -0.1561968E+01
  0.1900000E+01  0.6294990E+04 -0.1559915E+01  0.2938204E+05 -0.1940750E+00  0.2393180E+05 -0.1559916E+01
  0.2000000E+01  0.6785349E+04 -0.1557837E+01  0.2819379E+05 -0.2283019E+00  0.2581563E+05 -0.1557838E+01
  0.2100000E+01  0.7256082E+04 -0.1555906E+01  0.2703475E+05 -0.2656671E+00  0.2762736E+05 -0.1555907E+01
  0.2200000E+01  0.7697032E+04 -0.1554352E+01  0.2590768E+05 -0.3061142E+00  0.2932935E+05 -0.1554353E+01
  0.2300000E+01  0.8103493E+04 -0.1553493E+01  0.2481291E+05 -0.3496520E+00  0.3090288E+05 -0.1553493E+01
  0.2400000E+01  0.8468106E+04 -0.1553699E+01  0.2375476E+05 -0.3962422E+00  0.3231939E+05 -0.1553700E+01
  0.2500000E+01  0.8784127E+04 -0.1555385E+01  0.2274037E+05 -0.4459138E+00  0.3355384E+05 -0.1555385E+01
  0.2600000E+01  0.9047945E+04 -0.1559008E+01  0.2176571E+05 -0.4986214E+00  0.3459139E+05 -0.1559008E+01
  0.2700000E+01  0.9256741E+04 -0.1565049E+01  0.2082915E+05 -0.5542083E+00  0.3542032E+05 -0.1565049E+01
  0.2800000E+01  0.9409050E+04 -0.1573990E+01  0.1993689E+05 -0.6127862E+00  0.3603489E+05 -0.1573990E+01
  0.2900000E+01  0.9504197E+04 -0.1586238E+01  0.1908731E+05 -0.6743509E+00  0.3643207E+05 -0.1586238E+01
  0.3000000E+01  0.9545405E+04 -0.1602216E+01  0.1827508E+05 -0.7387062E+00  0.3662300E+05 -0.1602214E+01
  0.3100000E+01  0.9535761E+04 -0.1622267E+01  0.1749757E+05 -0.8057561E+00  0.3661893E+05 -0.1622268E+01
  0.3200000E+01  0.9480575E+04 -0.1646668E+01  0.1675921E+05 -0.8757483E+00  0.3644000E+05 -0.1646669E+01
