VARIABLES="w (rad/s)"
"abs(F   1   1)" "angle(F   1   1)"
"abs(F   1   2)" "angle(F   1   2)"
"abs(F   1   3)" "angle(F   1   3)"
Zone t="Diffraction force - beta =   0.000 deg",I=   100,F=POINT
  0.1000000E+00  0.8794680E-01 -0.1570796E+01  0.5115469E-01 -0.3141432E+01  0.2550553E+00 -0.1570796E+01
  0.3010101E+00  0.7968853E+00 -0.1570796E+01  0.4637694E+00 -0.3140146E+01  0.2311056E+01 -0.1570796E+01
  0.5020202E+00  0.2215591E+01 -0.1570796E+01  0.1293242E+01 -0.3137639E+01  0.6425449E+01 -0.1570796E+01
  0.7030303E+00  0.4372128E+01 -0.1570794E+01  0.2531576E+01 -0.3134004E+01  0.1267964E+02 -0.1570794E+01
  0.9040404E+00  0.7250045E+01 -0.1570788E+01  0.4167366E+01 -0.3129368E+01  0.2102594E+02 -0.1570788E+01
  0.1105051E+01  0.1083394E+02 -0.1570770E+01  0.6202726E+01 -0.3123947E+01  0.3141964E+02 -0.1570770E+01
  0.1306061E+01  0.1511733E+02 -0.1570727E+01  0.8613644E+01 -0.3117921E+01  0.4384183E+02 -0.1570727E+01
  0.1507071E+01  0.2012020E+02 -0.1570634E+01  0.1135471E+02 -0.3111438E+01  0.5835081E+02 -0.1570634E+01
  0.1708081E+01  0.2584804E+02 -0.1570458E+01  0.1443748E+02 -0.3104830E+01  0.7496202E+02 -0.1570458E+01
  0.1909091E+01  0.3226626E+02 -0.1570148E+01  0.1777837E+02 -0.3098181E+01  0.9357555E+02 -0.1570148E+01
  0.2110101E+01  0.3943726E+02 -0.1569637E+01  0.2140286E+02 -0.3091876E+01  0.1143720E+03 -0.1569637E+01
  0.2311111E+01  0.4734595E+02 -0.1568838E+01  0.2519326E+02 -0.3085915E+01  0.1373079E+03 -0.1568838E+01
  0.2512121E+01  0.5594602E+02 -0.1567638E+01  0.2919641E+02 -0.3080723E+01  0.1622489E+03 -0.1567638E+01
  0.2713131E+01  0.6542217E+02 -0.1565908E+01  0.3331024E+02 -0.3076304E+01  0.1897303E+03 -0.1565908E+01
  0.2914141E+01  0.7565333E+02 -0.1563486E+01  0.3746316E+02 -0.3072749E+01  0.2194019E+03 -0.1563486E+01
  0.3115151E+01  0.8663659E+02 -0.1560187E+01  0.4174976E+02 -0.3070499E+01  0.2512539E+03 -0.1560186E+01
  0.3316161E+01  0.9861543E+02 -0.1555812E+01  0.4603268E+02 -0.3069390E+01  0.2859937E+03 -0.1555812E+01
  0.3517171E+01  0.1115486E+03 -0.1550127E+01  0.5026279E+02 -0.3069454E+01  0.3235005E+03 -0.1550127E+01
  0.3718182E+01  0.1253325E+03 -0.1542865E+01  0.5443606E+02 -0.3070814E+01  0.3634742E+03 -0.1542864E+01
  0.3919192E+01  0.1400172E+03 -0.1533750E+01  0.5861980E+02 -0.3073632E+01  0.4060611E+03 -0.1533750E+01
  0.4120202E+01  0.1559533E+03 -0.1522523E+01  0.6275386E+02 -0.3077758E+01  0.4522769E+03 -0.1522522E+01
  0.4321212E+01  0.1731240E+03 -0.1508862E+01  0.6668594E+02 -0.3082958E+01  0.5020722E+03 -0.1508862E+01
  0.4522222E+01  0.1913799E+03 -0.1492405E+01  0.7048975E+02 -0.3089267E+01  0.5550170E+03 -0.1492404E+01
  0.4723232E+01  0.2106416E+03 -0.1472800E+01  0.7421590E+02 -0.3096692E+01  0.6108760E+03 -0.1472800E+01
  0.4924242E+01  0.2309933E+03 -0.1449743E+01  0.7786199E+02 -0.3105205E+01  0.6698972E+03 -0.1449742E+01
  0.5125252E+01  0.2527652E+03 -0.1422945E+01  0.8138531E+02 -0.3114558E+01  0.7330369E+03 -0.1422945E+01
  0.5326262E+01  0.2758660E+03 -0.1392017E+01  0.8471706E+02 -0.3124465E+01  0.8000291E+03 -0.1392016E+01
  0.5527273E+01  0.3000973E+03 -0.1356556E+01  0.8780875E+02 -0.3134960E+01  0.8702994E+03 -0.1356555E+01
  0.5728283E+01  0.3250803E+03 -0.1316166E+01  0.9067851E+02  0.3137133E+01  0.9427516E+03 -0.1316165E+01
  0.5929293E+01  0.3504126E+03 -0.1270567E+01  0.9335743E+02  0.3125513E+01  0.1016215E+04 -0.1270566E+01
  0.6130303E+01  0.3757213E+03 -0.1219613E+01  0.9592083E+02  0.3113531E+01  0.1089612E+04 -0.1219611E+01
  0.6331313E+01  0.4009883E+03 -0.1163293E+01  0.9829555E+02  0.3101010E+01  0.1162885E+04 -0.1163291E+01
  0.6532323E+01  0.4257843E+03 -0.1101607E+01  0.1003794E+03  0.3087894E+01  0.1234796E+04 -0.1101604E+01
  0.6733334E+01  0.4492239E+03 -0.1034609E+01  0.1021237E+03  0.3074103E+01  0.1302771E+04 -0.1034607E+01
  0.6934343E+01  0.4704187E+03 -0.9626205E+00  0.1035813E+03  0.3059650E+01  0.1364236E+04 -0.9626185E+00
  0.7135354E+01  0.4887235E+03 -0.8862997E+00  0.1047620E+03  0.3044280E+01  0.1417316E+04 -0.8862963E+00
  0.7336363E+01  0.5035620E+03 -0.8064178E+00  0.1056556E+03  0.3027626E+01  0.1460350E+04 -0.8064129E+00
  0.7537374E+01  0.5142956E+03 -0.7239274E+00  0.1062279E+03  0.3009498E+01  0.1491478E+04 -0.7239217E+00
  0.7738384E+01  0.5204688E+03 -0.6397958E+00  0.1065029E+03  0.2989730E+01  0.1509378E+04 -0.6397918E+00
  0.7939394E+01  0.5219623E+03 -0.5550699E+00  0.1065254E+03  0.2968104E+01  0.1513709E+04 -0.5550638E+00
  0.8140405E+01  0.5190008E+03 -0.4708333E+00  0.1063367E+03  0.2944367E+01  0.1505120E+04 -0.4708283E+00
  0.8341414E+01  0.5118402E+03 -0.3880065E+00  0.1059360E+03  0.2918203E+01  0.1484354E+04 -0.3880004E+00
  0.8542424E+01  0.5010198E+03 -0.3072422E+00  0.1053857E+03  0.2889733E+01  0.1452971E+04 -0.3072363E+00
  0.8743435E+01  0.4871030E+03 -0.2291509E+00  0.1047439E+03  0.2858701E+01  0.1412615E+04 -0.2291438E+00
  0.8944445E+01  0.4707399E+03 -0.1540095E+00  0.1040620E+03  0.2825141E+01  0.1365160E+04 -0.1540020E+00
  0.9145455E+01  0.4526188E+03 -0.8190609E-01  0.1033946E+03  0.2789271E+01  0.1312608E+04 -0.8189840E-01
  0.9346465E+01  0.4332657E+03 -0.1291563E-01  0.1027772E+03  0.2751271E+01  0.1256481E+04 -0.1290769E-01
  0.9547475E+01  0.4131449E+03  0.5304694E-01  0.1022658E+03  0.2711439E+01  0.1198131E+04  0.5305515E-01
  0.9748485E+01  0.3926913E+03  0.1162656E+00  0.1019016E+03  0.2670277E+01  0.1138817E+04  0.1162742E+00
  0.9949495E+01  0.3722097E+03  0.1768615E+00  0.1016944E+03  0.2628180E+01  0.1079420E+04  0.1768702E+00
  0.1015051E+02  0.3519240E+03  0.2350735E+00  0.1016713E+03  0.2585720E+01  0.1020589E+04  0.2350829E+00
  0.1035151E+02  0.3319721E+03  0.2912138E+00  0.1018340E+03  0.2543489E+01  0.9627270E+03  0.2912236E+00
  0.1055252E+02  0.3124901E+03  0.3456293E+00  0.1021772E+03  0.2502070E+01  0.9062296E+03  0.3456405E+00
  0.1075354E+02  0.2936026E+03  0.3985034E+00  0.1026859E+03  0.2461991E+01  0.8514567E+03  0.3985130E+00
  0.1095455E+02  0.2753745E+03  0.4499894E+00  0.1033267E+03  0.2423610E+01  0.7985950E+03  0.4499995E+00
  0.1115556E+02  0.2578206E+03  0.5004100E+00  0.1040742E+03  0.2387217E+01  0.7476878E+03  0.5004212E+00
  0.1135657E+02  0.2409740E+03  0.5499673E+00  0.1048938E+03  0.2353299E+01  0.6988319E+03  0.5499797E+00
  0.1155758E+02  0.2248023E+03  0.5987427E+00  0.1057270E+03  0.2321941E+01  0.6519350E+03  0.5987531E+00
  0.1175859E+02  0.2092670E+03  0.6469854E+00  0.1065500E+03  0.2293265E+01  0.6068821E+03  0.6469954E+00
  0.1195960E+02  0.1944008E+03  0.6948856E+00  0.1073253E+03  0.2267417E+01  0.5637684E+03  0.6948971E+00
  0.1216061E+02  0.1801704E+03  0.7427771E+00  0.1080345E+03  0.2244512E+01  0.5225012E+03  0.7427896E+00
  0.1236162E+02  0.1665721E+03  0.7907112E+00  0.1086138E+03  0.2224845E+01  0.4830656E+03  0.7907224E+00
  0.1256263E+02  0.1535816E+03  0.8387525E+00  0.1090627E+03  0.2207729E+01  0.4453937E+03  0.8387625E+00
  0.1276364E+02  0.1411517E+03  0.8872362E+00  0.1093758E+03  0.2193684E+01  0.4093464E+03  0.8872476E+00
  0.1296465E+02  0.1292807E+03  0.9364198E+00  0.1095659E+03  0.2183782E+01  0.3749199E+03  0.9364299E+00
  0.1316566E+02  0.1178904E+03  0.9865749E+00  0.1097299E+03  0.2179109E+01  0.3418882E+03  0.9865844E+00
  0.1336667E+02  0.1069834E+03  0.1038189E+01  0.1099252E+03  0.2184476E+01  0.3102580E+03  0.1038201E+01
  0.1356768E+02  0.9653661E+02  0.1091517E+01  0.1107881E+03  0.2217314E+01  0.2799617E+03  0.1091527E+01
  0.1376869E+02  0.8656315E+02  0.1147794E+01  0.1143604E+03  0.2497641E+01  0.2510383E+03  0.1147803E+01
  0.1396970E+02  0.7702734E+02  0.1207815E+01  0.9068416E+02  0.1914886E+01  0.2233844E+03  0.1207824E+01
  0.1417071E+02  0.6793938E+02  0.1272389E+01  0.9705348E+02  0.2017227E+01  0.1970290E+03  0.1272398E+01
  0.1437172E+02  0.5927967E+02  0.1344161E+01  0.9671606E+02  0.2041733E+01  0.1719154E+03  0.1344168E+01
  0.1457273E+02  0.5108601E+02  0.1426020E+01  0.9517406E+02  0.2051976E+01  0.1481536E+03  0.1426025E+01
  0.1477374E+02  0.4337484E+02  0.1522505E+01  0.9293907E+02  0.2057389E+01  0.1257909E+03  0.1522506E+01
  0.1497475E+02  0.3621212E+02  0.1640625E+01  0.9028828E+02  0.2060968E+01  0.1050187E+03  0.1640622E+01
  0.1517576E+02  0.2972072E+02  0.1792571E+01  0.8732318E+02  0.2063548E+01  0.8619317E+02  0.1792562E+01
  0.1537677E+02  0.2412117E+02  0.1997957E+01  0.8418561E+02  0.2065955E+01  0.6995409E+02  0.1997940E+01
  0.1557778E+02  0.1982627E+02  0.2278407E+01  0.8077059E+02  0.2068171E+01  0.5749796E+02  0.2278376E+01
  0.1577879E+02  0.1740748E+02  0.2642051E+01  0.7715734E+02  0.2070747E+01  0.5048260E+02  0.2642009E+01
  0.1597980E+02  0.1721816E+02  0.3035368E+01  0.7333025E+02  0.2073347E+01  0.4993262E+02  0.3035328E+01
  0.1618081E+02  0.1898921E+02 -0.2905897E+01  0.6931841E+02  0.2076135E+01  0.5506814E+02 -0.2905925E+01
  0.1638182E+02  0.2198873E+02 -0.2646511E+01  0.6512772E+02  0.2079112E+01  0.6376639E+02 -0.2646530E+01
  0.1658283E+02  0.2539071E+02 -0.2455260E+01  0.6080548E+02  0.2081828E+01  0.7363198E+02 -0.2455266E+01
  0.1678384E+02  0.2887859E+02 -0.2305586E+01  0.5636236E+02  0.2084430E+01  0.8374706E+02 -0.2305590E+01
  0.1698485E+02  0.3203694E+02 -0.2178954E+01  0.5182443E+02  0.2086590E+01  0.9290646E+02 -0.2178955E+01
  0.1718586E+02  0.3430429E+02 -0.2055046E+01  0.4721666E+02  0.2088091E+01  0.9948198E+02 -0.2055047E+01
  0.1738687E+02  0.3458003E+02 -0.1894088E+01  0.4260724E+02  0.2088689E+01  0.1002815E+03 -0.1894086E+01
  0.1758788E+02  0.2363271E+02 -0.1472472E+01  0.3801293E+02  0.2087830E+01  0.6853436E+02 -0.1472465E+01
  0.1778889E+02  0.5562715E+02 -0.2991776E+01  0.3345426E+02  0.2084961E+01  0.1613197E+03 -0.2991777E+01
  0.1798990E+02  0.5864858E+02 -0.2328447E+01  0.2894515E+02  0.2079079E+01  0.1700811E+03 -0.2328445E+01
  0.1819091E+02  0.5854443E+02 -0.2162577E+01  0.2450856E+02  0.2068928E+01  0.1697791E+03 -0.2162573E+01
  0.1839192E+02  0.5922262E+02 -0.2075606E+01  0.2017902E+02  0.2051119E+01  0.1717461E+03 -0.2075603E+01
  0.1859293E+02  0.6001353E+02 -0.2016159E+01  0.1598734E+02  0.2019676E+01  0.1740397E+03 -0.2016155E+01
  0.1879394E+02  0.6053851E+02 -0.1971285E+01  0.1196239E+02  0.1962915E+01  0.1755624E+03 -0.1971280E+01
  0.1899495E+02  0.6084498E+02 -0.1933942E+01  0.8192951E+01  0.1846113E+01  0.1764511E+03 -0.1933937E+01
  0.1919596E+02  0.6087505E+02 -0.1901934E+01  0.4915284E+01  0.1553513E+01  0.1765386E+03 -0.1901930E+01
  0.1939697E+02  0.6055526E+02 -0.1872505E+01  0.3178801E+01  0.7443740E+00  0.1756111E+03 -0.1872500E+01
  0.1959798E+02  0.5992027E+02 -0.1846624E+01  0.4547415E+01 -0.8286826E-01  0.1737695E+03 -0.1846619E+01
  0.1979899E+02  0.5889956E+02 -0.1823144E+01  0.7149719E+01 -0.3796220E+00  0.1708095E+03 -0.1823139E+01
  0.2000000E+02  0.5753673E+02 -0.1802608E+01  0.9807019E+01 -0.4927113E+00  0.1668575E+03 -0.1802603E+01
