VARIABLES="w (rad/s)"
"abs(F   1   1)" "angle(F   1   1)"
"abs(F   1   2)" "angle(F   1   2)"
"abs(F   1   3)" "angle(F   1   3)"
Zone t="Diffraction force - beta =   0.000 deg",I=   100,F=POINT
  0.1000000E+00  0.2216516E+00 -0.1570773E+01  0.3944134E+03 -0.2082871E-07  0.6428174E+00 -0.1570816E+01
  0.3010101E+00  0.2007257E+01 -0.1570798E+01  0.3929241E+03 -0.1707489E-05  0.5821308E+01 -0.1570798E+01
  0.5020202E+00  0.5576212E+01 -0.1570797E+01  0.3899435E+03 -0.1311205E-04  0.1617171E+02 -0.1570798E+01
  0.7030303E+00  0.1094499E+02 -0.1570795E+01  0.3854929E+03 -0.4983437E-04  0.3174189E+02 -0.1570795E+01
  0.9040404E+00  0.1807983E+02 -0.1570793E+01  0.3795974E+03 -0.1342029E-03  0.5243377E+02 -0.1570792E+01
  0.1105051E+01  0.2694241E+02 -0.1570786E+01  0.3722787E+03 -0.2939898E-03  0.7813639E+02 -0.1570786E+01
  0.1306061E+01  0.3749789E+02 -0.1570769E+01  0.3635883E+03 -0.5607418E-03  0.1087485E+03 -0.1570768E+01
  0.1507071E+01  0.4973259E+02 -0.1570730E+01  0.3536039E+03 -0.9681598E-03  0.1442306E+03 -0.1570731E+01
  0.1708081E+01  0.6361319E+02 -0.1570659E+01  0.3423519E+03 -0.1549985E-02  0.1844860E+03 -0.1570659E+01
  0.1909091E+01  0.7906144E+02 -0.1570531E+01  0.3299573E+03 -0.2338323E-02  0.2292880E+03 -0.1570531E+01
  0.2110101E+01  0.9609184E+02 -0.1570320E+01  0.3164425E+03 -0.3361247E-02  0.2786779E+03 -0.1570320E+01
  0.2311111E+01  0.1146364E+03 -0.1569987E+01  0.3019749E+03 -0.4642704E-02  0.3324590E+03 -0.1569987E+01
  0.2512121E+01  0.1345925E+03 -0.1569483E+01  0.2865610E+03 -0.6197941E-02  0.3903335E+03 -0.1569483E+01
  0.2713131E+01  0.1560845E+03 -0.1568747E+01  0.2703596E+03 -0.8038410E-02  0.4526626E+03 -0.1568747E+01
  0.2914141E+01  0.1789279E+03 -0.1567705E+01  0.2535016E+03 -0.1016606E-01  0.5189105E+03 -0.1567705E+01
  0.3115151E+01  0.2030526E+03 -0.1566270E+01  0.2359532E+03 -0.1256912E-01  0.5888751E+03 -0.1566269E+01
  0.3316161E+01  0.2286327E+03 -0.1564333E+01  0.2179160E+03 -0.1523945E-01  0.6630590E+03 -0.1564333E+01
  0.3517171E+01  0.2555537E+03 -0.1561775E+01  0.1995046E+03 -0.1815972E-01  0.7411327E+03 -0.1561775E+01
  0.3718182E+01  0.2836368E+03 -0.1558455E+01  0.1807896E+03 -0.2129542E-01  0.8225753E+03 -0.1558455E+01
  0.3919192E+01  0.3128525E+03 -0.1554219E+01  0.1617704E+03 -0.2461004E-01  0.9073038E+03 -0.1554219E+01
  0.4120202E+01  0.3434686E+03 -0.1548884E+01  0.1425778E+03 -0.2808063E-01  0.9960927E+03 -0.1548884E+01
  0.4321212E+01  0.3753795E+03 -0.1542247E+01  0.1234332E+03 -0.3166506E-01  0.1088635E+04 -0.1542247E+01
  0.4522222E+01  0.4083393E+03 -0.1534085E+01  0.1043345E+03 -0.3534312E-01  0.1184224E+04 -0.1534085E+01
  0.4723232E+01  0.4421654E+03 -0.1524170E+01  0.8530018E+02 -0.3906282E-01  0.1282319E+04 -0.1524170E+01
  0.4924242E+01  0.4768243E+03 -0.1512263E+01  0.6640220E+02 -0.4267097E-01  0.1382831E+04 -0.1512262E+01
  0.5125252E+01  0.5125132E+03 -0.1498079E+01  0.4775333E+02 -0.4608546E-01  0.1486334E+04 -0.1498080E+01
  0.5326262E+01  0.5489877E+03 -0.1481318E+01  0.2948998E+02 -0.4922080E-01  0.1592111E+04 -0.1481318E+01
  0.5527273E+01  0.5858715E+03 -0.1461678E+01  0.1172588E+02 -0.4968897E-01  0.1699072E+04 -0.1461679E+01
  0.5728283E+01  0.6225727E+03 -0.1438889E+01  0.5495460E+01  0.3067938E+01  0.1805507E+04 -0.1438890E+01
  0.5929293E+01  0.6584493E+03 -0.1412753E+01  0.2214291E+02  0.3073750E+01  0.1909548E+04 -0.1412753E+01
  0.6130303E+01  0.6928572E+03 -0.1383148E+01  0.3823558E+02  0.3071146E+01  0.2009333E+04 -0.1383148E+01
  0.6331313E+01  0.7254812E+03 -0.1349952E+01  0.5364761E+02  0.3067187E+01  0.2103942E+04 -0.1349952E+01
  0.6532323E+01  0.7555718E+03 -0.1313149E+01  0.6822671E+02  0.3062543E+01  0.2191208E+04 -0.1313149E+01
  0.6733334E+01  0.7819254E+03 -0.1272915E+01  0.8187794E+02  0.3057379E+01  0.2267633E+04 -0.1272915E+01
  0.6934343E+01  0.8033735E+03 -0.1229648E+01  0.9461177E+02  0.3051862E+01  0.2329831E+04 -0.1229649E+01
  0.7135354E+01  0.8190707E+03 -0.1183948E+01  0.1063985E+03  0.3045781E+01  0.2375350E+04 -0.1183949E+01
  0.7336363E+01  0.8283434E+03 -0.1136546E+01  0.1171949E+03  0.3038889E+01  0.2402241E+04 -0.1136545E+01
  0.7537374E+01  0.8306042E+03 -0.1088406E+01  0.1269335E+03  0.3031142E+01  0.2408793E+04 -0.1088405E+01
  0.7738384E+01  0.8255936E+03 -0.1040566E+01  0.1356114E+03  0.3022503E+01  0.2394260E+04 -0.1040566E+01
  0.7939394E+01  0.8135367E+03 -0.9940856E+00  0.1432469E+03  0.3012869E+01  0.2359288E+04 -0.9940840E+00
  0.8140405E+01  0.7951249E+03 -0.9499721E+00  0.1498617E+03  0.3002101E+01  0.2305896E+04 -0.9499724E+00
  0.8341414E+01  0.7711646E+03 -0.9091887E+00  0.1554355E+03  0.2990026E+01  0.2236406E+04 -0.9091878E+00
  0.8542424E+01  0.7427211E+03 -0.8724082E+00  0.1600192E+03  0.2976725E+01  0.2153917E+04 -0.8724090E+00
  0.8743435E+01  0.7109044E+03 -0.8402498E+00  0.1636595E+03  0.2961980E+01  0.2061647E+04 -0.8402483E+00
  0.8944445E+01  0.6767999E+03 -0.8130233E+00  0.1664040E+03  0.2945734E+01  0.1962742E+04 -0.8130230E+00
  0.9145455E+01  0.6414258E+03 -0.7907965E+00  0.1683095E+03  0.2927987E+01  0.1860156E+04 -0.7907971E+00
  0.9346465E+01  0.6056052E+03 -0.7736478E+00  0.1694209E+03  0.2908675E+01  0.1756271E+04 -0.7736488E+00
  0.9547475E+01  0.5699992E+03 -0.7615066E+00  0.1698105E+03  0.2887737E+01  0.1653012E+04 -0.7615064E+00
  0.9748485E+01  0.5351156E+03 -0.7540975E+00  0.1695476E+03  0.2865188E+01  0.1551848E+04 -0.7540961E+00
  0.9949495E+01  0.5013474E+03 -0.7512476E+00  0.1686768E+03  0.2840971E+01  0.1453918E+04 -0.7512457E+00
  0.1015051E+02  0.4689398E+03 -0.7527264E+00  0.1672716E+03  0.2815084E+01  0.1359935E+04 -0.7527270E+00
  0.1035151E+02  0.4380180E+03 -0.7583294E+00  0.1653910E+03  0.2787547E+01  0.1270260E+04 -0.7583307E+00
  0.1055252E+02  0.4086534E+03 -0.7677701E+00  0.1630951E+03  0.2758386E+01  0.1185100E+04 -0.7677692E+00
  0.1075354E+02  0.3809181E+03 -0.7807575E+00  0.1604428E+03  0.2727631E+01  0.1104668E+04 -0.7807558E+00
  0.1095455E+02  0.3548305E+03 -0.7970540E+00  0.1574758E+03  0.2695266E+01  0.1029013E+04 -0.7970521E+00
  0.1115556E+02  0.3303202E+03 -0.8164463E+00  0.1542477E+03  0.2661263E+01  0.9579352E+03 -0.8164486E+00
  0.1135657E+02  0.3073428E+03 -0.8386860E+00  0.1508123E+03  0.2625791E+01  0.8912974E+03 -0.8386866E+00
  0.1155758E+02  0.2858497E+03 -0.8636972E+00  0.1471895E+03  0.2588859E+01  0.8289705E+03 -0.8636987E+00
  0.1175859E+02  0.2657561E+03 -0.8914270E+00  0.1434327E+03  0.2550494E+01  0.7706960E+03 -0.8914263E+00
  0.1195960E+02  0.2469895E+03 -0.9215594E+00  0.1395805E+03  0.2510822E+01  0.7162706E+03 -0.9215596E+00
  0.1216061E+02  0.2294469E+03 -0.9540288E+00  0.1356841E+03  0.2469975E+01  0.6653965E+03 -0.9540280E+00
  0.1236162E+02  0.2130782E+03 -0.9886349E+00  0.1317477E+03  0.2428373E+01  0.6179283E+03 -0.9886351E+00
  0.1256263E+02  0.1978285E+03 -0.1025236E+01  0.1278073E+03  0.2385591E+01  0.5737034E+03 -0.1025234E+01
  0.1276364E+02  0.1836094E+03 -0.1063842E+01  0.1239133E+03  0.2342233E+01  0.5324679E+03 -0.1063842E+01
  0.1296465E+02  0.1703467E+03 -0.1104257E+01  0.1201260E+03  0.2299512E+01  0.4940064E+03 -0.1104257E+01
  0.1316566E+02  0.1580053E+03 -0.1146674E+01  0.1165628E+03  0.2258810E+01  0.4582175E+03 -0.1146674E+01
  0.1336667E+02  0.1465101E+03 -0.1190939E+01  0.1132885E+03  0.2225443E+01  0.4248784E+03 -0.1190938E+01
  0.1356768E+02  0.1358296E+03 -0.1236885E+01  0.1108491E+03  0.2218043E+01  0.3939051E+03 -0.1236884E+01
  0.1376869E+02  0.1258514E+03 -0.1284553E+01  0.1101116E+03  0.2468348E+01  0.3649678E+03 -0.1284551E+01
  0.1396970E+02  0.1165631E+03 -0.1333955E+01  0.8765444E+02  0.1799676E+01  0.3380321E+03 -0.1333954E+01
  0.1417071E+02  0.1079267E+03 -0.1384652E+01  0.9133418E+02  0.1859982E+01  0.3129860E+03 -0.1384652E+01
  0.1437172E+02  0.9988865E+02 -0.1437047E+01  0.8922652E+02  0.1832522E+01  0.2896758E+03 -0.1437047E+01
  0.1457273E+02  0.9239556E+02 -0.1490943E+01  0.8638522E+02  0.1787381E+01  0.2679471E+03 -0.1490943E+01
  0.1477374E+02  0.8542699E+02 -0.1546283E+01  0.8326389E+02  0.1734421E+01  0.2477366E+03 -0.1546283E+01
  0.1497475E+02  0.7894297E+02 -0.1602807E+01  0.8010973E+02  0.1677158E+01  0.2289332E+03 -0.1602806E+01
  0.1517576E+02  0.7290258E+02 -0.1660590E+01  0.7701588E+02  0.1616707E+01  0.2114164E+03 -0.1660590E+01
  0.1537677E+02  0.6728818E+02 -0.1719860E+01  0.7408391E+02  0.1554737E+01  0.1951357E+03 -0.1719860E+01
  0.1557778E+02  0.6203840E+02 -0.1780053E+01  0.7121279E+02  0.1490665E+01  0.1799103E+03 -0.1780054E+01
  0.1577879E+02  0.5715039E+02 -0.1841459E+01  0.6843447E+02  0.1425539E+01  0.1657354E+03 -0.1841459E+01
  0.1597980E+02  0.5254668E+02 -0.1902682E+01  0.6573421E+02  0.1358862E+01  0.1523848E+03 -0.1902682E+01
  0.1618081E+02  0.4818822E+02 -0.1964020E+01  0.6310999E+02  0.1290919E+01  0.1397453E+03 -0.1964020E+01
  0.1638182E+02  0.4407617E+02 -0.2025259E+01  0.6054827E+02  0.1221565E+01  0.1278202E+03 -0.2025259E+01
  0.1658283E+02  0.4001526E+02 -0.2083865E+01  0.5808448E+02  0.1150826E+01  0.1160436E+03 -0.2083863E+01
  0.1678384E+02  0.3602728E+02 -0.2138149E+01  0.5569747E+02  0.1078737E+01  0.1044785E+03 -0.2138149E+01
  0.1698485E+02  0.3181452E+02 -0.2183829E+01  0.5339717E+02  0.1005220E+01  0.9226155E+02 -0.2183830E+01
  0.1718586E+02  0.2676072E+02 -0.2210274E+01  0.5118377E+02  0.9302914E+00  0.7760558E+02 -0.2210277E+01
  0.1738687E+02  0.1933899E+02 -0.2174943E+01  0.4906858E+02  0.8548195E+00  0.5608225E+02 -0.2174945E+01
  0.1758788E+02  0.2421788E+01  0.2910475E+00  0.4704433E+02  0.7787725E+00  0.7023806E+01  0.2911331E+00
  0.1778889E+02  0.5946380E+02  0.2751832E+01  0.4509710E+02  0.7022173E+00  0.1724462E+03  0.2751831E+01
  0.1798990E+02  0.4070404E+02 -0.3001327E+01  0.4321769E+02  0.6249829E+00  0.1180415E+03 -0.3001330E+01
  0.1819091E+02  0.3326569E+02 -0.2950220E+01  0.4139076E+02  0.5470492E+00  0.9647007E+02 -0.2950222E+01
  0.1839192E+02  0.2905864E+02 -0.2972147E+01  0.3962595E+02  0.4685748E+00  0.8426984E+02 -0.2972145E+01
  0.1859293E+02  0.2605295E+02 -0.3017599E+01  0.3792156E+02  0.3896065E+00  0.7555309E+02 -0.3017600E+01
  0.1879394E+02  0.2364809E+02 -0.3079168E+01  0.3625891E+02  0.3098080E+00  0.6857893E+02 -0.3079170E+01
  0.1899495E+02  0.2161325E+02  0.3138213E+01  0.3465019E+02  0.2295534E+00  0.6267781E+02  0.3138212E+01
  0.1919596E+02  0.1984196E+02  0.3070346E+01  0.3309393E+02  0.1490544E+00  0.5754130E+02  0.3070353E+01
  0.1939697E+02  0.1817511E+02  0.3000343E+01  0.3156910E+02  0.6827395E-01  0.5270723E+02  0.3000343E+01
  0.1959798E+02  0.1669172E+02  0.2929834E+01  0.3008261E+02 -0.1251271E-01  0.4840535E+02  0.2929832E+01
  0.1979899E+02  0.1532790E+02  0.2855737E+01  0.2861290E+02 -0.9272977E-01  0.4445021E+02  0.2855739E+01
  0.2000000E+02  0.1412678E+02  0.2781055E+01  0.2713502E+02 -0.1717994E+00  0.4096716E+02  0.2781048E+01
