VARIABLES="w (rad/s)"
"abs(F   1   1)" "angle(F   1   1)"
"abs(F   1   2)" "angle(F   1   2)"
"abs(F   1   3)" "angle(F   1   3)"
Zone t="FKforce - beta =   0.000",I=   100,F=POINT
  0.1000000E+00  0.1337048E+00 -0.1570758E+01  0.3944645E+03  0.1687731E-11  0.3877621E+00 -0.1570829E+01
  0.3010101E+00  0.1210372E+01 -0.1570799E+01  0.3933879E+03 -0.2056714E-10  0.3510252E+01 -0.1570800E+01
  0.5020202E+00  0.3360621E+01 -0.1570798E+01  0.3912367E+03  0.4612138E-11  0.9746266E+01 -0.1570800E+01
  0.7030303E+00  0.6572865E+01 -0.1570796E+01  0.3880244E+03 -0.5070349E-10  0.1906225E+02 -0.1570796E+01
  0.9040404E+00  0.1082979E+02 -0.1570796E+01  0.3837644E+03  0.1395415E-10  0.3140783E+02 -0.1570795E+01
  0.1105051E+01  0.1610847E+02 -0.1570797E+01  0.3784804E+03 -0.1784000E-09  0.4671675E+02 -0.1570796E+01
  0.1306061E+01  0.2238056E+02 -0.1570797E+01  0.3721995E+03  0.4629095E-10  0.6490666E+02 -0.1570796E+01
  0.1507071E+01  0.2961239E+02 -0.1570796E+01  0.3649533E+03  0.1148353E-10  0.8587981E+02 -0.1570797E+01
  0.1708081E+01  0.3776515E+02 -0.1570796E+01  0.3567792E+03  0.6264866E-10  0.1095240E+03 -0.1570796E+01
  0.1909091E+01  0.4679519E+02 -0.1570796E+01  0.3477180E+03 -0.2839088E-09  0.1357125E+03 -0.1570796E+01
  0.2110101E+01  0.5665459E+02 -0.1570796E+01  0.3378171E+03  0.3363398E-09  0.1643060E+03 -0.1570796E+01
  0.2311111E+01  0.6729050E+02 -0.1570796E+01  0.3271259E+03 -0.1007833E-08  0.1951512E+03 -0.1570796E+01
  0.2512121E+01  0.7864662E+02 -0.1570796E+01  0.3156978E+03  0.4897073E-09  0.2280851E+03 -0.1570796E+01
  0.2713131E+01  0.9066281E+02 -0.1570796E+01  0.3035901E+03 -0.6135394E-10  0.2629336E+03 -0.1570796E+01
  0.2914141E+01  0.1032757E+03 -0.1570796E+01  0.2908629E+03  0.3778277E-09  0.2995119E+03 -0.1570796E+01
  0.3115151E+01  0.1164188E+03 -0.1570796E+01  0.2775789E+03 -0.2415718E-08  0.3376293E+03 -0.1570796E+01
  0.3316161E+01  0.1300236E+03 -0.1570796E+01  0.2638035E+03 -0.2796049E-08  0.3770836E+03 -0.1570796E+01
  0.3517171E+01  0.1440185E+03 -0.1570796E+01  0.2496038E+03  0.4999813E-09  0.4176712E+03 -0.1570796E+01
  0.3718182E+01  0.1583316E+03 -0.1570796E+01  0.2350484E+03  0.1648300E-08  0.4591803E+03 -0.1570796E+01
  0.3919192E+01  0.1728884E+03 -0.1570796E+01  0.2202059E+03 -0.4415416E-08  0.5013967E+03 -0.1570796E+01
  0.4120202E+01  0.1876145E+03 -0.1570796E+01  0.2051476E+03 -0.2887293E-08  0.5441035E+03 -0.1570796E+01
  0.4321212E+01  0.2024344E+03 -0.1570796E+01  0.1899427E+03  0.2549652E-08  0.5870823E+03 -0.1570796E+01
  0.4522222E+01  0.2172720E+03 -0.1570796E+01  0.1746626E+03  0.1492994E-08  0.6301130E+03 -0.1570796E+01
  0.4723232E+01  0.2320539E+03 -0.1570796E+01  0.1593762E+03 -0.8718575E-08  0.6729805E+03 -0.1570796E+01
  0.4924242E+01  0.2467048E+03 -0.1570796E+01  0.1441522E+03 -0.8528108E-08  0.7154683E+03 -0.1570796E+01
  0.5125252E+01  0.2611512E+03 -0.1570796E+01  0.1290582E+03  0.1215225E-07  0.7573663E+03 -0.1570796E+01
  0.5326262E+01  0.2753224E+03 -0.1570796E+01  0.1141589E+03 -0.2153745E-08  0.7984644E+03 -0.1570796E+01
  0.5527273E+01  0.2891505E+03 -0.1570796E+01  0.9951823E+02 -0.9957243E-08  0.8385647E+03 -0.1570796E+01
  0.5728283E+01  0.3025657E+03 -0.1570796E+01  0.8519705E+02 -0.1206826E-07  0.8774684E+03 -0.1570796E+01
  0.5929293E+01  0.3155049E+03 -0.1570796E+01  0.7125339E+02  0.2614114E-09  0.9149920E+03 -0.1570796E+01
  0.6130303E+01  0.3279049E+03 -0.1570796E+01  0.5774232E+02 -0.1548378E-08  0.9509526E+03 -0.1570796E+01
  0.6331313E+01  0.3397087E+03 -0.1570796E+01  0.4471544E+02 -0.2024459E-07  0.9851844E+03 -0.1570796E+01
  0.6532323E+01  0.3508601E+03 -0.1570796E+01  0.3222106E+02 -0.6243297E-07  0.1017525E+04 -0.1570796E+01
  0.6733334E+01  0.3613087E+03 -0.1570796E+01  0.2030343E+02 -0.1548578E-06  0.1047825E+04 -0.1570796E+01
  0.6934343E+01  0.3710074E+03 -0.1570796E+01  0.9002602E+01  0.1787623E-06  0.1075951E+04 -0.1570796E+01
  0.7135354E+01  0.3799114E+03 -0.1570796E+01  0.1644182E+01 -0.3141592E+01  0.1101774E+04 -0.1570796E+01
  0.7336363E+01  0.3879838E+03 -0.1570796E+01  0.1160716E+02 -0.3141592E+01  0.1125184E+04 -0.1570796E+01
  0.7537374E+01  0.3951883E+03 -0.1570796E+01  0.2085763E+02 -0.3141593E+01  0.1146073E+04 -0.1570796E+01
  0.7738384E+01  0.4014954E+03 -0.1570796E+01  0.2937370E+02 -0.3141593E+01  0.1164364E+04 -0.1570796E+01
  0.7939394E+01  0.4068803E+03 -0.1570796E+01  0.3713548E+02 -0.3141593E+01  0.1179976E+04 -0.1570796E+01
  0.8140405E+01  0.4113202E+03 -0.1570796E+01  0.4413079E+02 -0.3141593E+01  0.1192855E+04 -0.1570796E+01
  0.8341414E+01  0.4148016E+03 -0.1570796E+01  0.5034983E+02 -0.3141593E+01  0.1202948E+04 -0.1570796E+01
  0.8542424E+01  0.4173110E+03 -0.1570796E+01  0.5578850E+02  0.3141593E+01  0.1210227E+04 -0.1570796E+01
  0.8743435E+01  0.4188428E+03 -0.1570796E+01  0.6044615E+02 -0.3141593E+01  0.1214666E+04 -0.1570796E+01
  0.8944445E+01  0.4193939E+03 -0.1570796E+01  0.6432766E+02 -0.3141593E+01  0.1216266E+04 -0.1570796E+01
  0.9145455E+01  0.4189676E+03 -0.1570796E+01  0.6744080E+02  0.3141593E+01  0.1215031E+04 -0.1570796E+01
  0.9346465E+01  0.4175705E+03 -0.1570796E+01  0.6979907E+02  0.3141593E+01  0.1210977E+04 -0.1570796E+01
  0.9547475E+01  0.4152125E+03 -0.1570796E+01  0.7141871E+02 -0.3141593E+01  0.1204136E+04 -0.1570796E+01
  0.9748485E+01  0.4119105E+03 -0.1570796E+01  0.7232062E+02 -0.3141593E+01  0.1194559E+04 -0.1570796E+01
  0.9949495E+01  0.4076821E+03 -0.1570796E+01  0.7252887E+02 -0.3141593E+01  0.1182295E+04 -0.1570796E+01
  0.1015051E+02  0.4025500E+03 -0.1570796E+01  0.7207056E+02 -0.3141593E+01  0.1167414E+04 -0.1570796E+01
  0.1035151E+02  0.3965434E+03 -0.1570796E+01  0.7097695E+02  0.3141593E+01  0.1149994E+04 -0.1570796E+01
  0.1055252E+02  0.3896913E+03 -0.1570796E+01  0.6928085E+02  0.3141593E+01  0.1130120E+04 -0.1570796E+01
  0.1075354E+02  0.3820263E+03 -0.1570796E+01  0.6701946E+02 -0.3141593E+01  0.1107890E+04 -0.1570796E+01
  0.1095455E+02  0.3735862E+03 -0.1570796E+01  0.6423042E+02 -0.3141593E+01  0.1083413E+04 -0.1570796E+01
  0.1115556E+02  0.3644084E+03 -0.1570796E+01  0.6095464E+02  0.3141593E+01  0.1056802E+04 -0.1570796E+01
  0.1135657E+02  0.3545383E+03 -0.1570796E+01  0.5723521E+02  0.3141593E+01  0.1028175E+04 -0.1570796E+01
  0.1155758E+02  0.3440167E+03 -0.1570796E+01  0.5311576E+02 -0.3141593E+01  0.9976642E+03 -0.1570796E+01
  0.1175859E+02  0.3328928E+03 -0.1570796E+01  0.4864137E+02 -0.3141593E+01  0.9654009E+03 -0.1570796E+01
  0.1195960E+02  0.3212127E+03 -0.1570796E+01  0.4385839E+02  0.3141593E+01  0.9315266E+03 -0.1570796E+01
  0.1216061E+02  0.3090276E+03 -0.1570796E+01  0.3881361E+02  0.3141593E+01  0.8961897E+03 -0.1570796E+01
  0.1236162E+02  0.2963875E+03 -0.1570796E+01  0.3355426E+02 -0.3141593E+01  0.8595336E+03 -0.1570796E+01
  0.1256263E+02  0.2833465E+03 -0.1570796E+01  0.2812746E+02 -0.3141593E+01  0.8217133E+03 -0.1570796E+01
  0.1276364E+02  0.2699554E+03 -0.1570796E+01  0.2258012E+02  0.3141593E+01  0.7828791E+03 -0.1570796E+01
  0.1296465E+02  0.2562698E+03 -0.1570796E+01  0.1695876E+02  0.3141593E+01  0.7431904E+03 -0.1570796E+01
  0.1316566E+02  0.2423434E+03 -0.1570796E+01  0.1130897E+02 -0.3141593E+01  0.7028047E+03 -0.1570796E+01
  0.1336667E+02  0.2282312E+03 -0.1570796E+01  0.5675308E+01  0.3141592E+01  0.6618767E+03 -0.1570796E+01
  0.1356768E+02  0.2139870E+03 -0.1570796E+01  0.1011799E+00  0.3141590E+01  0.6205677E+03 -0.1570796E+01
  0.1376869E+02  0.1996642E+03 -0.1570796E+01  0.5371818E+01 -0.6699093E-06  0.5790304E+03 -0.1570796E+01
  0.1396970E+02  0.1853176E+03 -0.1570796E+01  0.1070380E+02  0.1770625E-07  0.5374254E+03 -0.1570796E+01
  0.1417071E+02  0.1709991E+03 -0.1570796E+01  0.1585677E+02  0.2129087E-07  0.4959012E+03 -0.1570796E+01
  0.1437172E+02  0.1567603E+03 -0.1570796E+01  0.2079494E+02  0.1196682E-06  0.4546082E+03 -0.1570796E+01
  0.1457273E+02  0.1426527E+03 -0.1570796E+01  0.2548514E+02 -0.1005867E-07  0.4136970E+03 -0.1570796E+01
  0.1477374E+02  0.1287256E+03 -0.1570796E+01  0.2989652E+02 -0.5506035E-08  0.3733064E+03 -0.1570796E+01
  0.1497475E+02  0.1150264E+03 -0.1570796E+01  0.3400114E+02 -0.1044895E-06  0.3335787E+03 -0.1570796E+01
  0.1517576E+02  0.1016017E+03 -0.1570796E+01  0.3777381E+02 -0.7080987E-07  0.2946470E+03 -0.1570796E+01
  0.1537677E+02  0.8849577E+02 -0.1570796E+01  0.4119228E+02 -0.2752664E-08  0.2566407E+03 -0.1570796E+01
  0.1557778E+02  0.7575139E+02 -0.1570796E+01  0.4423755E+02 -0.1519746E-07  0.2196805E+03 -0.1570796E+01
  0.1577879E+02  0.6340836E+02 -0.1570796E+01  0.4689354E+02 -0.3294586E-07  0.1838858E+03 -0.1570796E+01
  0.1597980E+02  0.5150475E+02 -0.1570796E+01  0.4914771E+02 -0.4395801E-07  0.1493652E+03 -0.1570796E+01
  0.1618081E+02  0.4007608E+02 -0.1570796E+01  0.5099064E+02  0.1130806E-07  0.1162218E+03 -0.1570796E+01
  0.1638182E+02  0.2915539E+02 -0.1570796E+01  0.5241624E+02 -0.7481809E-07  0.8455148E+02 -0.1570796E+01
  0.1658283E+02  0.1877278E+02 -0.1570796E+01  0.5342158E+02 -0.2760043E-07  0.5444169E+02 -0.1570796E+01
  0.1678384E+02  0.8955661E+01 -0.1570797E+01  0.5400718E+02 -0.1509641E-07  0.2597177E+02 -0.1570796E+01
  0.1698485E+02  0.2714722E+00  0.1570798E+01  0.5417681E+02 -0.3067202E-07  0.7871290E+00  0.1570779E+01
  0.1718586E+02  0.8887139E+01  0.1570796E+01  0.5393752E+02 -0.2133516E-08  0.2577277E+02  0.1570796E+01
  0.1738687E+02  0.1687287E+02  0.1570796E+01  0.5329912E+02 -0.1884081E-07  0.4893155E+02  0.1570796E+01
  0.1758788E+02  0.2421351E+02  0.1570796E+01  0.5227497E+02 -0.1035212E-07  0.7021940E+02  0.1570796E+01
  0.1778889E+02  0.3089699E+02  0.1570796E+01  0.5088072E+02  0.2543861E-07  0.8960198E+02  0.1570796E+01
  0.1798990E+02  0.3691471E+02  0.1570796E+01  0.4913534E+02 -0.2319642E-07  0.1070535E+03  0.1570796E+01
  0.1819091E+02  0.4226153E+02  0.1570796E+01  0.4706015E+02  0.2086366E-07  0.1225592E+03  0.1570796E+01
  0.1839192E+02  0.4693524E+02  0.1570796E+01  0.4467881E+02 -0.1109662E-08  0.1361128E+03  0.1570796E+01
  0.1859293E+02  0.5093734E+02  0.1570796E+01  0.4201747E+02 -0.3489588E-07  0.1477192E+03  0.1570796E+01
  0.1879394E+02  0.5427287E+02  0.1570796E+01  0.3910409E+02  0.7678589E-07  0.1573925E+03  0.1570796E+01
  0.1899495E+02  0.5694995E+02  0.1570796E+01  0.3596852E+02 -0.2833876E-07  0.1651559E+03  0.1570796E+01
  0.1919596E+02  0.5898038E+02  0.1570796E+01  0.3264203E+02 -0.8553846E-08  0.1710438E+03  0.1570796E+01
  0.1939697E+02  0.6037869E+02  0.1570796E+01  0.2915750E+02 -0.6006947E-07  0.1750992E+03  0.1570796E+01
  0.1959798E+02  0.6116355E+02  0.1570796E+01  0.2554844E+02  0.7954203E-08  0.1773752E+03  0.1570796E+01
  0.1979899E+02  0.6135629E+02  0.1570796E+01  0.2184928E+02  0.1364329E-07  0.1779339E+03  0.1570796E+01
  0.2000000E+02  0.6098133E+02  0.1570796E+01  0.1809505E+02 -0.1586673E-07  0.1768471E+03  0.1570796E+01
