 VARIABLES="Time (s)"
"AddedMass    1" "IRF    1"
"AddedMass    2" "IRF    2"
"AddedMass    3" "IRF    3"
Zone t="DoF    1",I=   800,F=POINT
  0.0000000E+00  0.4971824E+01  0.2770503E+03  0.2737779E-06 -0.2582785E-04  0.1441910E+02  0.8034550E+03
  0.1000000E-01  0.4971824E+01  0.2757995E+03  0.2737779E-06 -0.2552392E-04  0.1441910E+02  0.7998278E+03
  0.2000000E-01  0.4971824E+01  0.2720619E+03  0.2737779E-06 -0.2462047E-04  0.1441910E+02  0.7889885E+03
  0.3000000E-01  0.4971824E+01  0.2658803E+03  0.2737779E-06 -0.2314222E-04  0.1441910E+02  0.7710615E+03
  0.4000000E-01  0.4971824E+01  0.2573258E+03  0.2737779E-06 -0.2112957E-04  0.1441910E+02  0.7462534E+03
  0.5000000E-01  0.4971824E+01  0.2464965E+03  0.2737779E-06 -0.1863742E-04  0.1441910E+02  0.7148483E+03
  0.6000000E-01  0.4971824E+01  0.2335159E+03  0.2737779E-06 -0.1573350E-04  0.1441910E+02  0.6772043E+03
  0.7000000E-01  0.4971824E+01  0.2185312E+03  0.2737779E-06 -0.1249644E-04  0.1441910E+02  0.6337482E+03
  0.8000000E-01  0.4971824E+01  0.2017113E+03  0.2737779E-06 -0.9013423E-05  0.1441910E+02  0.5849700E+03
  0.9000000E-01  0.4971824E+01  0.1832440E+03  0.2737779E-06 -0.5377660E-05  0.1441910E+02  0.5314144E+03
  0.9999999E-01  0.4971824E+01  0.1633337E+03  0.2737779E-06 -0.1685662E-05  0.1441910E+02  0.4736743E+03
  0.1100000E+00  0.4971824E+01  0.1421986E+03  0.2737779E-06  0.1965535E-05  0.1441910E+02  0.4123817E+03
  0.1200000E+00  0.4971824E+01  0.1200671E+03  0.2737779E-06  0.5481147E-05  0.1441910E+02  0.3482000E+03
  0.1300000E+00  0.4971824E+01  0.9717525E+02  0.2737779E-06  0.8771371E-05  0.1441910E+02  0.2818129E+03
  0.1400000E+00  0.4971824E+01  0.7376326E+02  0.2737779E-06  0.1175387E-04  0.1441910E+02  0.2139175E+03
  0.1500000E+00  0.4971824E+01  0.5007253E+02  0.2737779E-06  0.1435608E-04  0.1441910E+02  0.1452137E+03
  0.1600000E+00  0.4971824E+01  0.2634237E+02  0.2737779E-06  0.1651717E-04  0.1441910E+02  0.7639563E+02
  0.1700000E+00  0.4971824E+01  0.2807230E+01  0.2737779E-06  0.1818962E-04  0.1441910E+02  0.8142984E+01
  0.1800000E+00  0.4971824E+01 -0.2030628E+02  0.2737779E-06  0.1934045E-04  0.1441910E+02 -0.5888688E+02
  0.1900000E+00  0.4971824E+01 -0.4278205E+02  0.2737779E-06  0.1995192E-04  0.1441910E+02 -0.1240673E+03
  0.2000000E+00  0.4971824E+01 -0.6441670E+02  0.2737779E-06  0.2002184E-04  0.1441910E+02 -0.1868085E+03
  0.2100000E+00  0.4971824E+01 -0.8502191E+02  0.2737779E-06  0.1956336E-04  0.1441910E+02 -0.2465642E+03
  0.2200000E+00  0.4971824E+01 -0.1044261E+03  0.2737779E-06  0.1860437E-04  0.1441910E+02 -0.3028369E+03
  0.2300000E+00  0.4971824E+01 -0.1224759E+03  0.2737779E-06  0.1718640E-04  0.1441910E+02 -0.3551822E+03
  0.2400000E+00  0.4971824E+01 -0.1390377E+03  0.2737779E-06  0.1536321E-04  0.1441910E+02 -0.4032123E+03
  0.2500000E+00  0.4971824E+01 -0.1539983E+03  0.2737779E-06  0.1319899E-04  0.1441910E+02 -0.4465983E+03
  0.2600000E+00  0.4971824E+01 -0.1672651E+03  0.2737779E-06  0.1076631E-04  0.1441910E+02 -0.4850730E+03
  0.2700000E+00  0.4971824E+01 -0.1787675E+03  0.2737779E-06  0.8143841E-05  0.1441910E+02 -0.5184302E+03
  0.2800000E+00  0.4971824E+01 -0.1884552E+03  0.2737779E-06  0.5413935E-05  0.1441910E+02 -0.5465253E+03
  0.2900000E+00  0.4971824E+01 -0.1962993E+03  0.2737779E-06  0.2660204E-05  0.1441910E+02 -0.5692733E+03
  0.3000000E+00  0.4971824E+01 -0.2022907E+03  0.2737779E-06 -0.3498571E-07  0.1441910E+02 -0.5866490E+03
  0.3100000E+00  0.4971824E+01 -0.2064400E+03  0.2737779E-06 -0.2592858E-05  0.1441910E+02 -0.5986826E+03
  0.3200000E+00  0.4971824E+01 -0.2087759E+03  0.2737779E-06 -0.4940409E-05  0.1441910E+02 -0.6054572E+03
  0.3300000E+00  0.4971824E+01 -0.2093440E+03  0.2737779E-06 -0.7012444E-05  0.1441910E+02 -0.6071048E+03
  0.3400000E+00  0.4971824E+01 -0.2082056E+03  0.2737779E-06 -0.8753271E-05  0.1441910E+02 -0.6038036E+03
  0.3500000E+00  0.4971824E+01 -0.2054362E+03  0.2737779E-06 -0.1011805E-04  0.1441910E+02 -0.5957725E+03
  0.3600000E+00  0.4971824E+01 -0.2011235E+03  0.2737779E-06 -0.1107391E-04  0.1441910E+02 -0.5832657E+03
  0.3700000E+00  0.4971824E+01 -0.1953662E+03  0.2737779E-06 -0.1160052E-04  0.1441910E+02 -0.5665696E+03
  0.3800000E+00  0.4971824E+01 -0.1882721E+03  0.2737779E-06 -0.1169045E-04  0.1441910E+02 -0.5459969E+03
  0.3900000E+00  0.4971824E+01 -0.1799565E+03  0.2737779E-06 -0.1134899E-04  0.1441910E+02 -0.5218817E+03
  0.4000000E+00  0.4971824E+01 -0.1705405E+03  0.2737779E-06 -0.1059371E-04  0.1441910E+02 -0.4945749E+03
  0.4100000E+00  0.4971824E+01 -0.1601489E+03  0.2737779E-06 -0.9453621E-05  0.1441910E+02 -0.4644394E+03
  0.4200000E+00  0.4971824E+01 -0.1489101E+03  0.2737779E-06 -0.7968065E-05  0.1441910E+02 -0.4318467E+03
  0.4300000E+00  0.4971824E+01 -0.1369529E+03  0.2737779E-06 -0.6185287E-05  0.1441910E+02 -0.3971703E+03
  0.4400000E+00  0.4971824E+01 -0.1244061E+03  0.2737779E-06 -0.4160840E-05  0.1441910E+02 -0.3607846E+03
  0.4500000E+00  0.4971824E+01 -0.1113976E+03  0.2737779E-06 -0.1955822E-05  0.1441910E+02 -0.3230596E+03
  0.4600000E+00  0.4971824E+01 -0.9805224E+02  0.2737779E-06  0.3650099E-06  0.1441910E+02 -0.2843577E+03
  0.4700000E+00  0.4971824E+01 -0.8449146E+02  0.2737779E-06  0.2735169E-05  0.1441910E+02 -0.2450312E+03
  0.4800000E+00  0.4971824E+01 -0.7083259E+02  0.2737779E-06  0.5088285E-05  0.1441910E+02 -0.2054200E+03
  0.4900000E+00  0.4971824E+01 -0.5718755E+02  0.2737779E-06  0.7359985E-05  0.1441910E+02 -0.1658490E+03
  0.5000000E+00  0.4971824E+01 -0.4366238E+02  0.2737779E-06  0.9489577E-05  0.1441910E+02 -0.1266255E+03
  0.5100000E+00  0.4971824E+01 -0.3035697E+02  0.2737779E-06  0.1142155E-04  0.1441910E+02 -0.8803931E+02
  0.5200000E+00  0.4971824E+01 -0.1736413E+02  0.2737779E-06  0.1310697E-04  0.1441910E+02 -0.5035960E+02
  0.5300000E+00  0.4971824E+01 -0.4769695E+01  0.2737779E-06  0.1450452E-04  0.1441910E+02 -0.1383530E+02
  0.5400000E+00  0.4971824E+01  0.7348044E+01  0.2737779E-06  0.1558133E-04  0.1441910E+02  0.2130662E+02
  0.5500000E+00  0.4971824E+01  0.1891843E+02  0.2737779E-06  0.1631361E-04  0.1441910E+02  0.5486125E+02
  0.5600000E+00  0.4971824E+01  0.2987839E+02  0.2737779E-06  0.1668682E-04  0.1441910E+02  0.8664566E+02
  0.5700000E+00  0.4971824E+01  0.4017280E+02  0.2737779E-06  0.1669585E-04  0.1441910E+02  0.1164999E+03
  0.5800000E+00  0.4971824E+01  0.4975433E+02  0.2737779E-06  0.1634465E-04  0.1441910E+02  0.1442868E+03
  0.5900000E+00  0.4971824E+01  0.5858328E+02  0.2737779E-06  0.1564586E-04  0.1441910E+02  0.1698912E+03
  0.6000000E+00  0.4971824E+01  0.6662758E+02  0.2737779E-06  0.1462009E-04  0.1441910E+02  0.1932202E+03
  0.6100000E+00  0.4971824E+01  0.7386273E+02  0.2737779E-06  0.1329508E-04  0.1441910E+02  0.2142025E+03
  0.6200000E+00  0.4971824E+01  0.8027130E+02  0.2737779E-06  0.1170476E-04  0.1441910E+02  0.2327878E+03
  0.6300000E+00  0.4971824E+01  0.8584312E+02  0.2737779E-06  0.9888094E-05  0.1441910E+02  0.2489465E+03
  0.6400000E+00  0.4971824E+01  0.9057486E+02  0.2737779E-06  0.7887934E-05  0.1441910E+02  0.2626690E+03
  0.6500000E+00  0.4971824E+01  0.9446949E+02  0.2737779E-06  0.5749854E-05  0.1441910E+02  0.2739639E+03
  0.6600000E+00  0.4971824E+01  0.9753651E+02  0.2737779E-06  0.3520943E-05  0.1441910E+02  0.2828585E+03
  0.6700000E+00  0.4971824E+01  0.9979099E+02  0.2737779E-06  0.1248664E-05  0.1441910E+02  0.2893967E+03
  0.6800000E+00  0.4971824E+01  0.1012537E+03  0.2737779E-06 -0.1020249E-05  0.1441910E+02  0.2936389E+03
  0.6900000E+00  0.4971824E+01  0.1019505E+03  0.2737779E-06 -0.3240727E-05  0.1441910E+02  0.2956597E+03
  0.7000000E+00  0.4971824E+01  0.1019118E+03  0.2737779E-06 -0.5370362E-05  0.1441910E+02  0.2955477E+03
  0.7100000E+00  0.4971824E+01  0.1011724E+03  0.2737779E-06 -0.7370066E-05  0.1441910E+02  0.2934038E+03
  0.7200000E+00  0.4971824E+01  0.9977084E+02  0.2737779E-06 -0.9204777E-05  0.1441910E+02  0.2893395E+03
  0.7300000E+00  0.4971824E+01  0.9774899E+02  0.2737779E-06 -0.1084391E-04  0.1441910E+02  0.2834762E+03
  0.7400000E+00  0.4971824E+01  0.9515136E+02  0.2737779E-06 -0.1226178E-04  0.1441910E+02  0.2759432E+03
  0.7500000E+00  0.4971824E+01  0.9202503E+02  0.2737779E-06 -0.1343778E-04  0.1441910E+02  0.2668769E+03
  0.7600000E+00  0.4971824E+01  0.8841865E+02  0.2737779E-06 -0.1435655E-04  0.1441910E+02  0.2564183E+03
  0.7700000E+00  0.4971824E+01  0.8438214E+02  0.2737779E-06 -0.1500797E-04  0.1441910E+02  0.2447125E+03
  0.7800000E+00  0.4971824E+01  0.7996630E+02  0.2737779E-06 -0.1538708E-04  0.1441910E+02  0.2319065E+03
  0.7900000E+00  0.4971824E+01  0.7522216E+02  0.2737779E-06 -0.1549389E-04  0.1441910E+02  0.2181484E+03
  0.8000000E+00  0.4971824E+01  0.7020051E+02  0.2737779E-06 -0.1533320E-04  0.1441910E+02  0.2035857E+03
  0.8100000E+00  0.4971824E+01  0.6495152E+02  0.2737779E-06 -0.1491424E-04  0.1441910E+02  0.1883634E+03
  0.8200000E+00  0.4971824E+01  0.5952424E+02  0.2737779E-06 -0.1425040E-04  0.1441910E+02  0.1726242E+03
  0.8300000E+00  0.4971824E+01  0.5396634E+02  0.2737779E-06 -0.1335885E-04  0.1441910E+02  0.1565061E+03
  0.8400000E+00  0.4971824E+01  0.4832349E+02  0.2737779E-06 -0.1226018E-04  0.1441910E+02  0.1401417E+03
  0.8500000E+00  0.4971824E+01  0.4263937E+02  0.2737779E-06 -0.1097793E-04  0.1441910E+02  0.1236576E+03
  0.8600000E+00  0.4971824E+01  0.3695528E+02  0.2737779E-06 -0.9538288E-05  0.1441910E+02  0.1071736E+03
  0.8700000E+00  0.4971824E+01  0.3130978E+02  0.2737779E-06 -0.7969629E-05  0.1441910E+02  0.9080133E+02
  0.8800000E+00  0.4971824E+01  0.2573877E+02  0.2737779E-06 -0.6302124E-05  0.1441910E+02  0.7464523E+02
  0.8900000E+00  0.4971824E+01  0.2027518E+02  0.2737779E-06 -0.4567268E-05  0.1441910E+02  0.5880067E+02
  0.9000000E+00  0.4971824E+01  0.1494904E+02  0.2737779E-06 -0.2797504E-05  0.1441910E+02  0.4335456E+02
  0.9100000E+00  0.4971824E+01  0.9787343E+01  0.2737779E-06 -0.1025762E-05  0.1441910E+02  0.2838541E+02
  0.9200000E+00  0.4971824E+01  0.4814140E+01  0.2737779E-06  0.7149910E-06  0.1441910E+02  0.1396284E+02
  0.9300000E+00  0.4971824E+01  0.5054010E-01  0.2737779E-06  0.2392242E-05  0.1441910E+02  0.1481593E+00
  0.9400000E+00  0.4971824E+01 -0.4485078E+01  0.2737779E-06  0.3974330E-05  0.1441910E+02 -0.1300535E+02
  0.9500000E+00  0.4971824E+01 -0.8777046E+01  0.2737779E-06  0.5431068E-05  0.1441910E+02 -0.2545237E+02
  0.9600000E+00  0.4971824E+01 -0.1281236E+02  0.2737779E-06  0.6734148E-05  0.1441910E+02 -0.3715497E+02
  0.9700000E+00  0.4971824E+01 -0.1658025E+02  0.2737779E-06  0.7857710E-05  0.1441910E+02 -0.4808210E+02
  0.9800000E+00  0.4971824E+01 -0.2007229E+02  0.2737779E-06  0.8778811E-05  0.1441910E+02 -0.5820925E+02
  0.9899999E+00  0.4971824E+01 -0.2328197E+02  0.2737779E-06  0.9477973E-05  0.1441910E+02 -0.6751752E+02
  0.1000000E+01  0.4971824E+01 -0.2620480E+02  0.2737779E-06  0.9939603E-05  0.1441910E+02 -0.7599393E+02
  0.1010000E+01  0.4971824E+01 -0.2883788E+02  0.2737779E-06  0.1015247E-04  0.1441910E+02 -0.8363007E+02
  0.1020000E+01  0.4971824E+01 -0.3117986E+02  0.2737779E-06  0.1011007E-04  0.1441910E+02 -0.9042199E+02
  0.1030000E+01  0.4971824E+01 -0.3323090E+02  0.2737779E-06  0.9810958E-05  0.1441910E+02 -0.9637013E+02
  0.1040000E+01  0.4971824E+01 -0.3499228E+02  0.2737779E-06  0.9258953E-05  0.1441910E+02 -0.1014783E+03
  0.1050000E+01  0.4971824E+01 -0.3646666E+02  0.2737779E-06  0.8463278E-05  0.1441910E+02 -0.1057542E+03
  0.1060000E+01  0.4971824E+01 -0.3765764E+02  0.2737779E-06  0.7438601E-05  0.1441910E+02 -0.1092081E+03
  0.1070000E+01  0.4971824E+01 -0.3856995E+02  0.2737779E-06  0.6204881E-05  0.1441910E+02 -0.1118540E+03
  0.1080000E+01  0.4971824E+01 -0.3920923E+02  0.2737779E-06  0.4787163E-05  0.1441910E+02 -0.1137080E+03
  0.1090000E+01  0.4971824E+01 -0.3958214E+02  0.2737779E-06  0.3215148E-05  0.1441910E+02 -0.1147896E+03
  0.1100000E+01  0.4971824E+01 -0.3969630E+02  0.2737779E-06  0.1522768E-05  0.1441910E+02 -0.1151207E+03
  0.1110000E+01  0.4971824E+01 -0.3956025E+02  0.2737779E-06 -0.2525887E-06  0.1441910E+02 -0.1147262E+03
  0.1120000E+01  0.4971824E+01 -0.3918352E+02  0.2737779E-06 -0.2070763E-05  0.1441910E+02 -0.1136337E+03
  0.1130000E+01  0.4971824E+01 -0.3857653E+02  0.2737779E-06 -0.3889800E-05  0.1441910E+02 -0.1118736E+03
  0.1140000E+01  0.4971824E+01 -0.3775079E+02  0.2737779E-06 -0.5666854E-05  0.1441910E+02 -0.1094789E+03
  0.1150000E+01  0.4971824E+01 -0.3671871E+02  0.2737779E-06 -0.7359265E-05  0.1441910E+02 -0.1064858E+03
  0.1160000E+01  0.4971824E+01 -0.3549369E+02  0.2737779E-06 -0.8925688E-05  0.1441910E+02 -0.1029333E+03
  0.1170000E+01  0.4971824E+01 -0.3408999E+02  0.2737779E-06 -0.1032719E-04  0.1441910E+02 -0.9886263E+02
  0.1180000E+01  0.4971824E+01 -0.3252292E+02  0.2737779E-06 -0.1152828E-04  0.1441910E+02 -0.9431812E+02
  0.1190000E+01  0.4971824E+01 -0.3080854E+02  0.2737779E-06 -0.1249797E-04  0.1441910E+02 -0.8934637E+02
  0.1200000E+01  0.4971824E+01 -0.2896370E+02  0.2737779E-06 -0.1321076E-04  0.1441910E+02 -0.8399628E+02
  0.1210000E+01  0.4971824E+01 -0.2700590E+02  0.2737779E-06 -0.1364737E-04  0.1441910E+02 -0.7831870E+02
  0.1220000E+01  0.4971824E+01 -0.2495318E+02  0.2737779E-06 -0.1379548E-04  0.1441910E+02 -0.7236573E+02
  0.1230000E+01  0.4971824E+01 -0.2282404E+02  0.2737779E-06 -0.1365013E-04  0.1441910E+02 -0.6619120E+02
  0.1240000E+01  0.4971824E+01 -0.2063717E+02  0.2737779E-06 -0.1321413E-04  0.1441910E+02 -0.5984916E+02
  0.1250000E+01  0.4971824E+01 -0.1841130E+02  0.2737779E-06 -0.1249800E-04  0.1441910E+02 -0.5339406E+02
  0.1260000E+01  0.4971824E+01 -0.1616500E+02  0.2737779E-06 -0.1151988E-04  0.1441910E+02 -0.4687976E+02
  0.1270000E+01  0.4971824E+01 -0.1391660E+02  0.2737779E-06 -0.1030517E-04  0.1441910E+02 -0.4035936E+02
  0.1280000E+01  0.4971824E+01 -0.1168389E+02  0.2737779E-06 -0.8885804E-05  0.1441910E+02 -0.3388437E+02
  0.1290000E+01  0.4971824E+01 -0.9483818E+01  0.2737779E-06 -0.7299589E-05  0.1441910E+02 -0.2750408E+02
  0.1300000E+01  0.4971824E+01 -0.7332507E+01  0.2737779E-06 -0.5589067E-05  0.1441910E+02 -0.2126522E+02
  0.1310000E+01  0.4971824E+01 -0.5244858E+01  0.2737779E-06 -0.3800393E-05  0.1441910E+02 -0.1521095E+02
  0.1320000E+01  0.4971824E+01 -0.3234640E+01  0.2737779E-06 -0.1982000E-05  0.1441910E+02 -0.9381230E+01
  0.1330000E+01  0.4971824E+01 -0.1314038E+01  0.2737779E-06 -0.1832601E-06  0.1441910E+02 -0.3811403E+01
  0.1340000E+01  0.4971824E+01  0.5062082E+00  0.2737779E-06  0.1547062E-05  0.1441910E+02  0.1467370E+01
  0.1350000E+01  0.4971824E+01  0.2217100E+01  0.2737779E-06  0.3162185E-05  0.1441910E+02  0.6429042E+01
  0.1360000E+01  0.4971824E+01  0.3811234E+01  0.2737779E-06  0.4618754E-05  0.1441910E+02  0.1105214E+02
  0.1370000E+01  0.4971824E+01  0.5283009E+01  0.2737779E-06  0.5878189E-05  0.1441910E+02  0.1532036E+02
  0.1380000E+01  0.4971824E+01  0.6628597E+01  0.2737779E-06  0.6907838E-05  0.1441910E+02  0.1922263E+02
  0.1390000E+01  0.4971824E+01  0.7845782E+01  0.2737779E-06  0.7682081E-05  0.1441910E+02  0.2275256E+02
  0.1400000E+01  0.4971824E+01  0.8933969E+01  0.2737779E-06  0.8183049E-05  0.1441910E+02  0.2590836E+02
  0.1410000E+01  0.4971824E+01  0.9894210E+01  0.2737779E-06  0.8401287E-05  0.1441910E+02  0.2869312E+02
  0.1420000E+01  0.4971824E+01  0.1072877E+02  0.2737779E-06  0.8336020E-05  0.1441910E+02  0.3111343E+02
  0.1430000E+01  0.4971824E+01  0.1144137E+02  0.2737779E-06  0.7995254E-05  0.1441910E+02  0.3317999E+02
  0.1440000E+01  0.4971824E+01  0.1203657E+02  0.2737779E-06  0.7395521E-05  0.1441910E+02  0.3490613E+02
  0.1450000E+01  0.4971824E+01  0.1252000E+02  0.2737779E-06  0.6561366E-05  0.1441910E+02  0.3630819E+02
  0.1460000E+01  0.4971824E+01  0.1289790E+02  0.2737779E-06  0.5524646E-05  0.1441910E+02  0.3740412E+02
  0.1470000E+01  0.4971824E+01  0.1317711E+02  0.2737779E-06  0.4323475E-05  0.1441910E+02  0.3821386E+02
  0.1480000E+01  0.4971824E+01  0.1336455E+02  0.2737779E-06  0.3001035E-05  0.1441910E+02  0.3875748E+02
  0.1490000E+01  0.4971824E+01  0.1346745E+02  0.2737779E-06  0.1604265E-05  0.1441910E+02  0.3905595E+02
  0.1500000E+01  0.4971824E+01  0.1349296E+02  0.2737779E-06  0.1823024E-06  0.1441910E+02  0.3912991E+02
  0.1510000E+01  0.4971824E+01  0.1344793E+02  0.2737779E-06 -0.1215075E-05  0.1441910E+02  0.3899933E+02
  0.1520000E+01  0.4971824E+01  0.1333884E+02  0.2737779E-06 -0.2539027E-05  0.1441910E+02  0.3868304E+02
  0.1530000E+01  0.4971824E+01  0.1317179E+02  0.2737779E-06 -0.3743210E-05  0.1441910E+02  0.3819862E+02
  0.1540000E+01  0.4971824E+01  0.1295226E+02  0.2737779E-06 -0.4785311E-05  0.1441910E+02  0.3756200E+02
  0.1550000E+01  0.4971824E+01  0.1268508E+02  0.2737779E-06 -0.5628322E-05  0.1441910E+02  0.3678719E+02
  0.1560000E+01  0.4971824E+01  0.1237455E+02  0.2737779E-06 -0.6241793E-05  0.1441910E+02  0.3588667E+02
  0.1570000E+01  0.4971824E+01  0.1202415E+02  0.2737779E-06 -0.6602786E-05  0.1441910E+02  0.3487051E+02
  0.1580000E+01  0.4971824E+01  0.1163687E+02  0.2737779E-06 -0.6696590E-05  0.1441910E+02  0.3374741E+02
  0.1590000E+01  0.4971824E+01  0.1121506E+02  0.2737779E-06 -0.6517180E-05  0.1441910E+02  0.3252415E+02
  0.1600000E+01  0.4971824E+01  0.1076057E+02  0.2737779E-06 -0.6067361E-05  0.1441910E+02  0.3120618E+02
  0.1610000E+01  0.4971824E+01  0.1027490E+02  0.2737779E-06 -0.5358670E-05  0.1441910E+02  0.2979770E+02
  0.1620000E+01  0.4971824E+01  0.9759091E+01  0.2737779E-06 -0.4411008E-05  0.1441910E+02  0.2830189E+02
  0.1630000E+01  0.4971824E+01  0.9214207E+01  0.2737779E-06 -0.3251861E-05  0.1441910E+02  0.2672173E+02
  0.1640000E+01  0.4971824E+01  0.8641097E+01  0.2737779E-06 -0.1915445E-05  0.1441910E+02  0.2505974E+02
  0.1650000E+01  0.4971824E+01  0.8040696E+01  0.2737779E-06 -0.4415631E-06  0.1441910E+02  0.2331853E+02
  0.1660000E+01  0.4971824E+01  0.7414117E+01  0.2737779E-06  0.1125734E-05  0.1441910E+02  0.2150147E+02
  0.1670000E+01  0.4971824E+01  0.6762732E+01  0.2737779E-06  0.2739620E-05  0.1441910E+02  0.1961242E+02
  0.1680000E+01  0.4971824E+01  0.6088336E+01  0.2737779E-06  0.4351946E-05  0.1441910E+02  0.1765667E+02
  0.1690000E+01  0.4971824E+01  0.5393166E+01  0.2737779E-06  0.5914882E-05  0.1441910E+02  0.1564066E+02
  0.1700000E+01  0.4971824E+01  0.4679911E+01  0.2737779E-06  0.7382392E-05  0.1441910E+02  0.1357222E+02
  0.1710000E+01  0.4971824E+01  0.3951844E+01  0.2737779E-06  0.8711718E-05  0.1441910E+02  0.1146082E+02
  0.1720000E+01  0.4971824E+01  0.3212875E+01  0.2737779E-06  0.9864712E-05  0.1441910E+02  0.9317792E+01
  0.1730000E+01  0.4971824E+01  0.2467384E+01  0.2737779E-06  0.1080899E-04  0.1441910E+02  0.7155836E+01
  0.1740000E+01  0.4971824E+01  0.1720262E+01  0.2737779E-06  0.1151884E-04  0.1441910E+02  0.4989153E+01
  0.1750000E+01  0.4971824E+01  0.9768974E+00  0.2737779E-06  0.1197604E-04  0.1441910E+02  0.2833369E+01
  0.1760000E+01  0.4971824E+01  0.2430861E+00  0.2737779E-06  0.1217022E-04  0.1441910E+02  0.7053027E+00
  0.1770000E+01  0.4971824E+01 -0.4751792E+00  0.2737779E-06  0.1209911E-04  0.1441910E+02 -0.1377678E+01
  0.1780000E+01  0.4971824E+01 -0.1171623E+01  0.2737779E-06  0.1176842E-04  0.1441910E+02 -0.3397418E+01
  0.1790000E+01  0.4971824E+01 -0.1840067E+01  0.2737779E-06  0.1119144E-04  0.1441910E+02 -0.5335923E+01
  0.1800000E+01  0.4971824E+01 -0.2474338E+01  0.2737779E-06  0.1038855E-04  0.1441910E+02 -0.7175356E+01
  0.1810000E+01  0.4971824E+01 -0.3068475E+01  0.2737779E-06  0.9386255E-05  0.1441910E+02 -0.8898390E+01
  0.1820000E+01  0.4971824E+01 -0.3616986E+01  0.2737779E-06  0.8216259E-05  0.1441910E+02 -0.1048911E+02
  0.1830000E+01  0.4971824E+01 -0.4114820E+01  0.2737779E-06  0.6914235E-05  0.1441910E+02 -0.1193284E+02
  0.1840000E+01  0.4971824E+01 -0.4557555E+01  0.2737779E-06  0.5518540E-05  0.1441910E+02 -0.1321682E+02
  0.1850000E+01  0.4971824E+01 -0.4941519E+01  0.2737779E-06  0.4068906E-05  0.1441910E+02 -0.1433037E+02
  0.1860000E+01  0.4971824E+01 -0.5263950E+01  0.2737779E-06  0.2605047E-05  0.1441910E+02 -0.1526543E+02
  0.1870000E+01  0.4971824E+01 -0.5522882E+01  0.2737779E-06  0.1165364E-05  0.1441910E+02 -0.1601640E+02
  0.1880000E+01  0.4971824E+01 -0.5717453E+01  0.2737779E-06 -0.2143152E-06  0.1441910E+02 -0.1658068E+02
  0.1890000E+01  0.4971824E+01 -0.5847654E+01  0.2737779E-06 -0.1501801E-05  0.1441910E+02 -0.1695829E+02
  0.1900000E+01  0.4971824E+01 -0.5914585E+01  0.2737779E-06 -0.2669510E-05  0.1441910E+02 -0.1715244E+02
  0.1910000E+01  0.4971824E+01 -0.5920250E+01  0.2737779E-06 -0.3695186E-05  0.1441910E+02 -0.1716890E+02
  0.1920000E+01  0.4971824E+01 -0.5867639E+01  0.2737779E-06 -0.4562450E-05  0.1441910E+02 -0.1701634E+02
  0.1930000E+01  0.4971824E+01 -0.5760678E+01  0.2737779E-06 -0.5261035E-05  0.1441910E+02 -0.1670620E+02
  0.1940000E+01  0.4971824E+01 -0.5603785E+01  0.2737779E-06 -0.5786872E-05  0.1441910E+02 -0.1625123E+02
  0.1950000E+01  0.4971824E+01 -0.5402424E+01  0.2737779E-06 -0.6141883E-05  0.1441910E+02 -0.1566728E+02
  0.1960000E+01  0.4971824E+01 -0.5162235E+01  0.2737779E-06 -0.6333592E-05  0.1441910E+02 -0.1497079E+02
  0.1970000E+01  0.4971824E+01 -0.4889552E+01  0.2737779E-06 -0.6374458E-05  0.1441910E+02 -0.1417999E+02
  0.1980000E+01  0.4971824E+01 -0.4590748E+01  0.2737779E-06 -0.6281150E-05  0.1441910E+02 -0.1331348E+02
  0.1990000E+01  0.4971824E+01 -0.4272344E+01  0.2737779E-06 -0.6073587E-05  0.1441910E+02 -0.1239012E+02
  0.2000000E+01  0.4971824E+01 -0.3940883E+01  0.2737779E-06 -0.5773926E-05  0.1441910E+02 -0.1142889E+02
  0.2010000E+01  0.4971824E+01 -0.3602624E+01  0.2737779E-06 -0.5405487E-05  0.1441910E+02 -0.1044794E+02
  0.2020000E+01  0.4971824E+01 -0.3263528E+01  0.2737779E-06 -0.4991665E-05  0.1441910E+02 -0.9464566E+01
  0.2030000E+01  0.4971824E+01 -0.2929053E+01  0.2737779E-06 -0.4554927E-05  0.1441910E+02 -0.8494579E+01
  0.2040000E+01  0.4971824E+01 -0.2604115E+01  0.2737779E-06 -0.4115758E-05  0.1441910E+02 -0.7552236E+01
  0.2050000E+01  0.4971824E+01 -0.2292893E+01  0.2737779E-06 -0.3691909E-05  0.1441910E+02 -0.6649700E+01
  0.2060000E+01  0.4971824E+01 -0.1998946E+01  0.2737779E-06 -0.3297617E-05  0.1441910E+02 -0.5797237E+01
  0.2070000E+01  0.4971824E+01 -0.1724936E+01  0.2737779E-06 -0.2943158E-05  0.1441910E+02 -0.5002589E+01
  0.2080000E+01  0.4971824E+01 -0.1472693E+01  0.2737779E-06 -0.2634467E-05  0.1441910E+02 -0.4271065E+01
  0.2090000E+01  0.4971824E+01 -0.1243361E+01  0.2737779E-06 -0.2373059E-05  0.1441910E+02 -0.3605992E+01
  0.2100000E+01  0.4971824E+01 -0.1037095E+01  0.2737779E-06 -0.2156166E-05  0.1441910E+02 -0.3007809E+01
  0.2110000E+01  0.4971824E+01 -0.8534364E+00  0.2737779E-06 -0.1976973E-05  0.1441910E+02 -0.2475172E+01
  0.2120000E+01  0.4971824E+01 -0.6911789E+00  0.2737779E-06 -0.1825167E-05  0.1441910E+02 -0.2004621E+01
  0.2130000E+01  0.4971824E+01 -0.5484601E+00  0.2737779E-06 -0.1687647E-05  0.1441910E+02 -0.1590710E+01
  0.2140000E+01  0.4971824E+01 -0.4229726E+00  0.2737779E-06 -0.1549253E-05  0.1441910E+02 -0.1226779E+01
  0.2150000E+01  0.4971824E+01 -0.3120563E+00  0.2737779E-06 -0.1393742E-05  0.1441910E+02 -0.9051020E+00
  0.2160000E+01  0.4971824E+01 -0.2126678E+00  0.2737779E-06 -0.1204744E-05  0.1441910E+02 -0.6168598E+00
  0.2170000E+01  0.4971824E+01 -0.1215944E+00  0.2737779E-06 -0.9667385E-06  0.1441910E+02 -0.3527357E+00
  0.2180000E+01  0.4971824E+01 -0.3566925E-01  0.2737779E-06 -0.6661084E-06  0.1441910E+02 -0.1035060E+00
  0.2190000E+01  0.4971824E+01  0.4825563E-01  0.2737779E-06 -0.2919544E-06  0.1441910E+02  0.1399031E+00
  0.2200000E+01  0.4971824E+01  0.1330491E+00  0.2737779E-06  0.1630558E-06  0.1441910E+02  0.3857810E+00
  0.2210000E+01  0.4971824E+01  0.2212584E+00  0.2737779E-06  0.7020503E-06  0.1441910E+02  0.6416252E+00
  0.2220000E+01  0.4971824E+01  0.3151504E+00  0.2737779E-06  0.1323492E-05  0.1441910E+02  0.9139274E+00
  0.2230000E+01  0.4971824E+01  0.4163399E+00  0.2737779E-06  0.2020851E-05  0.1441910E+02  0.1207391E+01
  0.2240000E+01  0.4971824E+01  0.5259090E+00  0.2737779E-06  0.2782653E-05  0.1441910E+02  0.1525172E+01
  0.2250000E+01  0.4971824E+01  0.6444985E+00  0.2737779E-06  0.3592547E-05  0.1441910E+02  0.1869064E+01
  0.2260000E+01  0.4971824E+01  0.7719648E+00  0.2737779E-06  0.4429737E-05  0.1441910E+02  0.2238753E+01
  0.2270000E+01  0.4971824E+01  0.9076172E+00  0.2737779E-06  0.5269610E-05  0.1441910E+02  0.2632149E+01
  0.2280000E+01  0.4971824E+01  0.1050152E+01  0.2737779E-06  0.6084559E-05  0.1441910E+02  0.3045516E+01
  0.2290000E+01  0.4971824E+01  0.1197727E+01  0.2737779E-06  0.6844828E-05  0.1441910E+02  0.3473494E+01
  0.2300000E+01  0.4971824E+01  0.1347984E+01  0.2737779E-06  0.7519806E-05  0.1441910E+02  0.3909256E+01
  0.2310000E+01  0.4971824E+01  0.1498144E+01  0.2737779E-06  0.8079011E-05  0.1441910E+02  0.4344737E+01
  0.2320000E+01  0.4971824E+01  0.1645144E+01  0.2737779E-06  0.8493504E-05  0.1441910E+02  0.4771048E+01
  0.2330000E+01  0.4971824E+01  0.1785556E+01  0.2737779E-06  0.8737028E-05  0.1441910E+02  0.5178247E+01
  0.2340000E+01  0.4971824E+01  0.1916038E+01  0.2737779E-06  0.8787152E-05  0.1441910E+02  0.5556657E+01
  0.2350000E+01  0.4971824E+01  0.2033093E+01  0.2737779E-06  0.8626452E-05  0.1441910E+02  0.5896111E+01
  0.2360000E+01  0.4971824E+01  0.2133348E+01  0.2737779E-06  0.8243343E-05  0.1441910E+02  0.6186883E+01
  0.2370000E+01  0.4971824E+01  0.2213652E+01  0.2737779E-06  0.7632934E-05  0.1441910E+02  0.6419755E+01
  0.2380000E+01  0.4971824E+01  0.2271359E+01  0.2737779E-06  0.6797422E-05  0.1441910E+02  0.6587101E+01
  0.2390000E+01  0.4971824E+01  0.2303981E+01  0.2737779E-06  0.5746480E-05  0.1441910E+02  0.6681698E+01
  0.2400000E+01  0.4971824E+01  0.2309677E+01  0.2737779E-06  0.4497260E-05  0.1441910E+02  0.6698234E+01
  0.2410000E+01  0.4971824E+01  0.2287284E+01  0.2737779E-06  0.3074053E-05  0.1441910E+02  0.6633285E+01
  0.2420000E+01  0.4971824E+01  0.2236112E+01  0.2737779E-06  0.1507905E-05  0.1441910E+02  0.6484899E+01
  0.2430000E+01  0.4971824E+01  0.2156241E+01  0.2737779E-06 -0.1642982E-06  0.1441910E+02  0.6253263E+01
  0.2440000E+01  0.4971824E+01  0.2048459E+01  0.2737779E-06 -0.1900876E-05  0.1441910E+02  0.5940675E+01
  0.2450000E+01  0.4971824E+01  0.1914150E+01  0.2737779E-06 -0.3656267E-05  0.1441910E+02  0.5551187E+01
  0.2460000E+01  0.4971824E+01  0.1755538E+01  0.2737779E-06 -0.5382856E-05  0.1441910E+02  0.5091214E+01
  0.2470000E+01  0.4971824E+01  0.1575346E+01  0.2737779E-06 -0.7032246E-05  0.1441910E+02  0.4568639E+01
  0.2480000E+01  0.4971824E+01  0.1376778E+01  0.2737779E-06 -0.8556780E-05  0.1441910E+02  0.3992784E+01
  0.2490000E+01  0.4971824E+01  0.1163695E+01  0.2737779E-06 -0.9911289E-05  0.1441910E+02  0.3374812E+01
  0.2500000E+01  0.4971824E+01  0.9401725E+00  0.2737779E-06 -0.1105452E-04  0.1441910E+02  0.2726601E+01
  0.2510000E+01  0.4971824E+01  0.7106482E+00  0.2737779E-06 -0.1195067E-04  0.1441910E+02  0.2060943E+01
  0.2520000E+01  0.4971824E+01  0.4796880E+00  0.2737779E-06 -0.1257061E-04  0.1441910E+02  0.1391166E+01
  0.2530000E+01  0.4971824E+01  0.2519064E+00  0.2737779E-06 -0.1289300E-04  0.1441910E+02  0.7305871E+00
  0.2540000E+01  0.4971824E+01  0.3175417E-01  0.2737779E-06 -0.1290517E-04  0.1441910E+02  0.9211571E-01
  0.2550000E+01  0.4971824E+01 -0.1763292E+00  0.2737779E-06 -0.1260368E-04  0.1441910E+02 -0.5113321E+00
  0.2560000E+01  0.4971824E+01 -0.3684664E+00  0.2737779E-06 -0.1199463E-04  0.1441910E+02 -0.1068529E+01
  0.2570000E+01  0.4971824E+01 -0.5410729E+00  0.2737779E-06 -0.1109355E-04  0.1441910E+02 -0.1569124E+01
  0.2580000E+01  0.4971824E+01 -0.6912166E+00  0.2737779E-06 -0.9925100E-05  0.1441910E+02 -0.2004542E+01
  0.2590000E+01  0.4971824E+01 -0.8163640E+00  0.2737779E-06 -0.8522458E-05  0.1441910E+02 -0.2367490E+01
  0.2600000E+01  0.4971824E+01 -0.9149104E+00  0.2737779E-06 -0.6926235E-05  0.1441910E+02 -0.2653301E+01
  0.2610000E+01  0.4971824E+01 -0.9858135E+00  0.2737779E-06 -0.5183378E-05  0.1441910E+02 -0.2858926E+01
  0.2620000E+01  0.4971824E+01 -0.1028761E+01  0.2737779E-06 -0.3345673E-05  0.1441910E+02 -0.2983486E+01
  0.2630000E+01  0.4971824E+01 -0.1044281E+01  0.2737779E-06 -0.1468095E-05  0.1441910E+02 -0.3028509E+01
  0.2640000E+01  0.4971824E+01 -0.1033515E+01  0.2737779E-06  0.3928151E-06  0.1441910E+02 -0.2997286E+01
  0.2650000E+01  0.4971824E+01 -0.9983884E+00  0.2737779E-06  0.2180929E-05  0.1441910E+02 -0.2895421E+01
  0.2660000E+01  0.4971824E+01 -0.9414191E+00  0.2737779E-06  0.3842214E-05  0.1441910E+02 -0.2730216E+01
  0.2670000E+01  0.4971824E+01 -0.8656332E+00  0.2737779E-06  0.5326540E-05  0.1441910E+02 -0.2510455E+01
  0.2680000E+01  0.4971824E+01 -0.7745595E+00  0.2737779E-06  0.6589320E-05  0.1441910E+02 -0.2246354E+01
  0.2690000E+01  0.4971824E+01 -0.6720731E+00  0.2737779E-06  0.7593002E-05  0.1441910E+02 -0.1949141E+01
  0.2700000E+01  0.4971824E+01 -0.5621657E+00  0.2737779E-06  0.8308237E-05  0.1441910E+02 -0.1630422E+01
  0.2710000E+01  0.4971824E+01 -0.4491831E+00  0.2737779E-06  0.8714993E-05  0.1441910E+02 -0.1302770E+01
  0.2720000E+01  0.4971824E+01 -0.3371495E+00  0.2737779E-06  0.8803125E-05  0.1441910E+02 -0.9778578E+00
  0.2730000E+01  0.4971824E+01 -0.2301434E+00  0.2737779E-06  0.8572799E-05  0.1441910E+02 -0.6675233E+00
  0.2740000E+01  0.4971824E+01 -0.1319427E+00  0.2737779E-06  0.8034477E-05  0.1441910E+02 -0.3827696E+00
  0.2750000E+01  0.4971824E+01 -0.4590115E-01  0.2737779E-06  0.7208602E-05  0.1441910E+02 -0.1332334E+00
  0.2760000E+01  0.4971824E+01  0.2511122E-01  0.2737779E-06  0.6124988E-05  0.1441910E+02  0.7269795E-01
  0.2770000E+01  0.4971824E+01  0.7874981E-01  0.2737779E-06  0.4821765E-05  0.1441910E+02  0.2282615E+00
  0.2780000E+01  0.4971824E+01  0.1132955E+00  0.2737779E-06  0.3344311E-05  0.1441910E+02  0.3284531E+00