VARIABLES="w (rad/s)"
"abs(F   1   1)" "angle(F   1   1)"
"abs(F   1   2)" "angle(F   1   2)"
"abs(F   1   3)" "angle(F   1   3)"
Zone t="Diffraction force - beta =   0.000 deg",I=   100,F=POINT
  0.1000000E+00  0.8867382E-03 -0.1570796E+01  0.1797229E-01 -0.3141391E+01  0.2769807E-02 -0.1570797E+01
  0.3010101E+00  0.7697138E-02 -0.1570796E+01  0.1611378E+00 -0.3139779E+01  0.2404297E-01 -0.1570796E+01
  0.5020202E+00  0.2130489E-01 -0.1570796E+01  0.4498768E+00 -0.3136583E+01  0.6654848E-01 -0.1570796E+01
  0.7030303E+00  0.4172747E-01 -0.1570796E+01  0.8880506E+00 -0.3131871E+01  0.1303420E+00 -0.1570796E+01
  0.9040404E+00  0.6877530E-01 -0.1570796E+01  0.1477406E+01 -0.3125702E+01  0.2148289E+00 -0.1570796E+01
  0.1105051E+01  0.1020214E+00 -0.1570795E+01  0.2219606E+01 -0.3118144E+01  0.3186781E+00 -0.1570795E+01
  0.1306061E+01  0.1412231E+00 -0.1570793E+01  0.3116853E+01 -0.3109282E+01  0.4411268E+00 -0.1570792E+01
  0.1507071E+01  0.1874833E+00 -0.1570788E+01  0.4178116E+01 -0.3099284E+01  0.5856217E+00 -0.1570788E+01
  0.1708081E+01  0.2378801E+00 -0.1570779E+01  0.5395492E+01 -0.3088149E+01  0.7430476E+00 -0.1570779E+01
  0.1909091E+01  0.2953684E+00 -0.1570762E+01  0.6776896E+01 -0.3076053E+01  0.9226035E+00 -0.1570762E+01
  0.2110101E+01  0.3555566E+00 -0.1570734E+01  0.8314356E+01 -0.3063017E+01  0.1110611E+01 -0.1570734E+01
  0.2311111E+01  0.4227163E+00 -0.1570689E+01  0.1001472E+02 -0.3049225E+01  0.1320368E+01 -0.1570689E+01
  0.2512121E+01  0.4914734E+00 -0.1570621E+01  0.1186932E+02 -0.3034709E+01  0.1535133E+01 -0.1570620E+01
  0.2713131E+01  0.5644180E+00 -0.1570519E+01  0.1387468E+02 -0.3019567E+01  0.1762976E+01 -0.1570520E+01
  0.2914141E+01  0.6420277E+00 -0.1570376E+01  0.1603558E+02 -0.3003980E+01  0.2005359E+01 -0.1570376E+01
  0.3115151E+01  0.7199385E+00 -0.1570175E+01  0.1833447E+02 -0.2987919E+01  0.2248696E+01 -0.1570176E+01
  0.3316161E+01  0.7987865E+00 -0.1569902E+01  0.2077515E+02 -0.2971569E+01  0.2494971E+01 -0.1569902E+01
  0.3517171E+01  0.8804834E+00 -0.1569540E+01  0.2334015E+02 -0.2954908E+01  0.2750118E+01 -0.1569540E+01
  0.3718182E+01  0.9622756E+00 -0.1569066E+01  0.2602762E+02 -0.2938072E+01  0.3005533E+01 -0.1569066E+01
  0.3919192E+01  0.1041648E+01 -0.1568456E+01  0.2884175E+02 -0.2921261E+01  0.3253420E+01 -0.1568456E+01
  0.4120202E+01  0.1118400E+01 -0.1567678E+01  0.3175629E+02 -0.2904373E+01  0.3493121E+01 -0.1567679E+01
  0.4321212E+01  0.1194415E+01 -0.1566721E+01  0.3475460E+02 -0.2887395E+01  0.3730494E+01 -0.1566721E+01
  0.4522222E+01  0.1267665E+01 -0.1565541E+01  0.3785618E+02 -0.2870673E+01  0.3959203E+01 -0.1565542E+01
  0.4723232E+01  0.1335555E+01 -0.1564095E+01  0.4102544E+02 -0.2854009E+01  0.4171154E+01 -0.1564095E+01
  0.4924242E+01  0.1395282E+01 -0.1562346E+01  0.4426645E+02 -0.2837592E+01  0.4357631E+01 -0.1562347E+01
  0.5125252E+01  0.1447306E+01 -0.1560264E+01  0.4757618E+02 -0.2821539E+01  0.4520051E+01 -0.1560265E+01
  0.5326262E+01  0.1491758E+01 -0.1557810E+01  0.5092149E+02 -0.2805647E+01  0.4658799E+01 -0.1557812E+01
  0.5527273E+01  0.1527245E+01 -0.1554958E+01  0.5430125E+02 -0.2790030E+01  0.4769511E+01 -0.1554960E+01
  0.5728283E+01  0.1550967E+01 -0.1551653E+01  0.5771256E+02 -0.2774789E+01  0.4843444E+01 -0.1551654E+01
  0.5929293E+01  0.1560985E+01 -0.1547851E+01  0.6115121E+02 -0.2760023E+01  0.4874582E+01 -0.1547852E+01
  0.6130303E+01  0.1553696E+01 -0.1543465E+01  0.6460009E+02 -0.2745673E+01  0.4851673E+01 -0.1543467E+01
  0.6331313E+01  0.1528882E+01 -0.1538499E+01  0.6804974E+02 -0.2731739E+01  0.4774020E+01 -0.1538500E+01
  0.6532323E+01  0.1484466E+01 -0.1532887E+01  0.7149124E+02 -0.2718245E+01  0.4635138E+01 -0.1532887E+01
  0.6733334E+01  0.1420194E+01 -0.1526656E+01  0.7490960E+02 -0.2705092E+01  0.4434217E+01 -0.1526654E+01
  0.6934343E+01  0.1333107E+01 -0.1519744E+01  0.7831612E+02 -0.2692545E+01  0.4162018E+01 -0.1519738E+01
  0.7135354E+01  0.1220407E+01 -0.1512071E+01  0.8168346E+02 -0.2680345E+01  0.3809801E+01 -0.1512059E+01
  0.7336363E+01  0.1079574E+01 -0.1503535E+01  0.8501567E+02 -0.2668676E+01  0.3369714E+01 -0.1503512E+01
  0.7537374E+01  0.9074773E+00 -0.1493856E+01  0.8829702E+02 -0.2657428E+01  0.2831996E+01 -0.1493815E+01
  0.7738384E+01  0.7019378E+00 -0.1482493E+01  0.9153230E+02 -0.2646799E+01  0.2189826E+01 -0.1482417E+01
  0.7939394E+01  0.4617837E+00 -0.1467890E+01  0.9471485E+02 -0.2636795E+01  0.1439545E+01 -0.1467724E+01
  0.8140405E+01  0.1845685E+00 -0.1436762E+01  0.9782326E+02 -0.2627188E+01  0.5735247E+00 -0.1436115E+01
  0.8341414E+01  0.1313870E+00  0.1634660E+01  0.1008540E+03 -0.2617982E+01  0.4135215E+00  0.1634154E+01
  0.8542424E+01  0.4873951E+00  0.1681347E+01  0.1038051E+03 -0.2609253E+01  0.1525628E+01  0.1681063E+01
  0.8743435E+01  0.8854166E+00  0.1699658E+01  0.1066711E+03 -0.2601054E+01  0.2768949E+01  0.1699448E+01
  0.8944445E+01  0.1326903E+01  0.1715112E+01  0.1094460E+03 -0.2593433E+01  0.4148019E+01  0.1714930E+01
  0.9145455E+01  0.1813386E+01  0.1729911E+01  0.1121241E+03 -0.2586435E+01  0.5667614E+01  0.1729743E+01
  0.9346465E+01  0.2346097E+01  0.1744583E+01  0.1146910E+03 -0.2579767E+01  0.7331572E+01  0.1744421E+01
  0.9547475E+01  0.2925565E+01  0.1759348E+01  0.1171441E+03 -0.2573507E+01  0.9141495E+01  0.1759189E+01
  0.9748485E+01  0.3552418E+01  0.1774210E+01  0.1194810E+03 -0.2567693E+01  0.1109940E+02  0.1774051E+01
  0.9949495E+01  0.4226281E+01  0.1789243E+01  0.1216931E+03 -0.2562346E+01  0.1320412E+02  0.1789082E+01
  0.1015051E+02  0.4946529E+01  0.1804402E+01  0.1237760E+03 -0.2557342E+01  0.1545368E+02  0.1804239E+01
  0.1035151E+02  0.5713277E+01  0.1819584E+01  0.1257216E+03 -0.2552846E+01  0.1784842E+02  0.1819417E+01
  0.1055252E+02  0.6524909E+01  0.1834831E+01  0.1275221E+03 -0.2548830E+01  0.2038333E+02  0.1834660E+01
  0.1075354E+02  0.7380086E+01  0.1849999E+01  0.1291805E+03 -0.2545130E+01  0.2305419E+02  0.1849823E+01
  0.1095455E+02  0.8276694E+01  0.1865107E+01  0.1306920E+03 -0.2541751E+01  0.2585439E+02  0.1864926E+01
  0.1115556E+02  0.9213134E+01  0.1880062E+01  0.1320489E+03 -0.2538786E+01  0.2877896E+02  0.1879875E+01
  0.1135657E+02  0.1018689E+02  0.1894866E+01  0.1332435E+03 -0.2536247E+01  0.3182003E+02  0.1894673E+01
  0.1155758E+02  0.1119520E+02  0.1909494E+01  0.1342727E+03 -0.2534096E+01  0.3496899E+02  0.1909294E+01
  0.1175859E+02  0.1223502E+02  0.1923852E+01  0.1351337E+03 -0.2532324E+01  0.3821635E+02  0.1923645E+01
  0.1195960E+02  0.1330396E+02  0.1937827E+01  0.1358191E+03 -0.2530981E+01  0.4155462E+02  0.1937613E+01
  0.1216061E+02  0.1439944E+02  0.1951373E+01  0.1363206E+03 -0.2530091E+01  0.4497578E+02  0.1951151E+01
  0.1236162E+02  0.1551556E+02  0.1964708E+01  0.1366432E+03 -0.2529540E+01  0.4846139E+02  0.1964478E+01
  0.1256263E+02  0.1665017E+02  0.1977695E+01  0.1367848E+03 -0.2529346E+01  0.5200464E+02  0.1977458E+01
  0.1276364E+02  0.1779943E+02  0.1990233E+01  0.1367415E+03 -0.2529551E+01  0.5559362E+02  0.1989989E+01
  0.1296465E+02  0.1895955E+02  0.2002304E+01  0.1365075E+03 -0.2530177E+01  0.5921649E+02  0.2002051E+01
  0.1316566E+02  0.2012558E+02  0.2013976E+01  0.1360828E+03 -0.2531210E+01  0.6285789E+02  0.2013715E+01
  0.1336667E+02  0.2129369E+02  0.2025295E+01  0.1354650E+03 -0.2532646E+01  0.6650571E+02  0.2025026E+01
  0.1356768E+02  0.2245976E+02  0.2036124E+01  0.1346569E+03 -0.2534513E+01  0.7014722E+02  0.2035845E+01
  0.1376869E+02  0.2361954E+02  0.2046489E+01  0.1336438E+03 -0.2536815E+01  0.7376907E+02  0.2046201E+01
  0.1396970E+02  0.2476891E+02  0.2056379E+01  0.1324223E+03 -0.2539564E+01  0.7735842E+02  0.2056081E+01
  0.1417071E+02  0.2590270E+02  0.2065833E+01  0.1309963E+03 -0.2542767E+01  0.8089912E+02  0.2065526E+01
  0.1437172E+02  0.2701710E+02  0.2074832E+01  0.1293902E+03 -0.2546453E+01  0.8437930E+02  0.2074514E+01
  0.1457273E+02  0.2810721E+02  0.2083344E+01  0.1275854E+03 -0.2550659E+01  0.8778366E+02  0.2083016E+01
  0.1477374E+02  0.2916827E+02  0.2091417E+01  0.1255760E+03 -0.2555378E+01  0.9109727E+02  0.2091079E+01
  0.1497475E+02  0.3019606E+02  0.2099024E+01  0.1233673E+03 -0.2560639E+01  0.9430711E+02  0.2098675E+01
  0.1517576E+02  0.3118526E+02  0.2106116E+01  0.1209660E+03 -0.2566516E+01  0.9739646E+02  0.2105756E+01
  0.1537677E+02  0.3213196E+02  0.2112793E+01  0.1183782E+03 -0.2573051E+01  0.1003532E+03  0.2112422E+01
  0.1557778E+02  0.3303172E+02  0.2119085E+01  0.1156066E+03 -0.2580255E+01  0.1031635E+03  0.2118702E+01
  0.1577879E+02  0.3387978E+02  0.2124898E+01  0.1126487E+03 -0.2588100E+01  0.1058122E+03  0.2124504E+01
  0.1597980E+02  0.3467109E+02  0.2130251E+01  0.1095137E+03 -0.2596678E+01  0.1082839E+03  0.2129844E+01
  0.1618081E+02  0.3540015E+02  0.2135129E+01  0.1062027E+03 -0.2606045E+01  0.1105613E+03  0.2134708E+01
  0.1638182E+02  0.3606422E+02  0.2139609E+01  0.1027296E+03 -0.2616271E+01  0.1126358E+03  0.2139175E+01
  0.1658283E+02  0.3666152E+02  0.2143694E+01  0.9912154E+02 -0.2627675E+01  0.1145019E+03  0.2143246E+01
  0.1678384E+02  0.3718489E+02  0.2147324E+01  0.9536413E+02 -0.2640217E+01  0.1161374E+03  0.2146862E+01
  0.1698485E+02  0.3763120E+02  0.2150504E+01  0.9146780E+02 -0.2654042E+01  0.1175322E+03  0.2150028E+01
  0.1718586E+02  0.3799663E+02  0.2153249E+01  0.8744604E+02 -0.2669310E+01  0.1186745E+03  0.2152758E+01
  0.1738687E+02  0.3827644E+02  0.2155525E+01  0.8330381E+02 -0.2686162E+01  0.1195498E+03  0.2155018E+01
  0.1758788E+02  0.3846767E+02  0.2157333E+01  0.7905641E+02 -0.2704834E+01  0.1201485E+03  0.2156810E+01
  0.1778889E+02  0.3856884E+02  0.2158723E+01  0.7472005E+02 -0.2725746E+01  0.1204662E+03  0.2158182E+01
  0.1798990E+02  0.3857795E+02  0.2159625E+01  0.7031356E+02 -0.2749270E+01  0.1204965E+03  0.2159066E+01
  0.1819091E+02  0.3849212E+02  0.2160059E+01  0.6585931E+02 -0.2775405E+01  0.1202305E+03  0.2159482E+01
  0.1839192E+02  0.3830738E+02  0.2160034E+01  0.6137185E+02 -0.2804834E+01  0.1196558E+03  0.2159437E+01
  0.1859293E+02  0.3802058E+02  0.2159495E+01  0.5687411E+02 -0.2838160E+01  0.1187625E+03  0.2158877E+01
  0.1879394E+02  0.3763277E+02  0.2158445E+01  0.5238347E+02 -0.2876236E+01  0.1175540E+03  0.2157805E+01
  0.1899495E+02  0.3714648E+02  0.2156863E+01  0.4793629E+02 -0.2920625E+01  0.1160381E+03  0.2156200E+01
  0.1919596E+02  0.3656038E+02  0.2154613E+01  0.4356658E+02 -0.2973758E+01  0.1142107E+03  0.2153927E+01
  0.1939697E+02  0.3587170E+02  0.2151730E+01  0.3929310E+02 -0.3036999E+01  0.1120632E+03  0.2151019E+01
  0.1959798E+02  0.3508150E+02  0.2148129E+01  0.3517509E+02 -0.3113029E+01  0.1095988E+03  0.2147392E+01
  0.1979899E+02  0.3419041E+02  0.2143765E+01  0.3127722E+02  0.3077448E+01  0.1068196E+03  0.2143002E+01
  0.2000000E+02  0.3319814E+02  0.2138626E+01  0.2765966E+02  0.2963128E+01  0.1037246E+03  0.2137833E+01
