VARIABLES="w (rad/s)"
"abs(F   1   1)" "angle(F   1   1)"
"abs(F   1   2)" "angle(F   1   2)"
"abs(F   1   3)" "angle(F   1   3)"
Zone t="Diffraction force - beta =   0.000 deg",I=   100,F=POINT
  0.1000000E+00  0.4997852E-02 -0.1571128E+01  0.2625306E+03 -0.1380183E-07  0.1560755E-01 -0.1570968E+01
  0.3010101E+00  0.4494360E-01 -0.1570711E+01  0.2623543E+03 -0.1113897E-05  0.1403523E+00 -0.1570804E+01
  0.5020202E+00  0.1248889E+00 -0.1570798E+01  0.2619991E+03 -0.8601854E-05  0.3900093E+00 -0.1570791E+01
  0.7030303E+00  0.2448179E+00 -0.1570808E+01  0.2614608E+03 -0.3301914E-04  0.7645298E+00 -0.1570792E+01
  0.9040404E+00  0.4044903E+00 -0.1570791E+01  0.2607376E+03 -0.9003728E-04  0.1263162E+01 -0.1570797E+01
  0.1105051E+01  0.6034113E+00 -0.1570799E+01  0.2598278E+03 -0.2002938E-03  0.1884361E+01 -0.1570797E+01
  0.1306061E+01  0.8412522E+00 -0.1570794E+01  0.2587291E+03 -0.3891715E-03  0.2627096E+01 -0.1570799E+01
  0.1507071E+01  0.1119012E+01 -0.1570793E+01  0.2574321E+03 -0.6864645E-03  0.3494485E+01 -0.1570793E+01
  0.1708081E+01  0.1433644E+01 -0.1570795E+01  0.2559453E+03 -0.1126090E-02  0.4477030E+01 -0.1570794E+01
  0.1909091E+01  0.1787960E+01 -0.1570792E+01  0.2542608E+03 -0.1745603E-02  0.5583477E+01 -0.1570791E+01
  0.2110101E+01  0.2177402E+01 -0.1570786E+01  0.2523873E+03 -0.2585850E-02  0.6799634E+01 -0.1570786E+01
  0.2311111E+01  0.2606055E+01 -0.1570779E+01  0.2503189E+03 -0.3690182E-02  0.8138190E+01 -0.1570779E+01
  0.2512121E+01  0.3068331E+01 -0.1570769E+01  0.2480658E+03 -0.5104405E-02  0.9581773E+01 -0.1570768E+01
  0.2713131E+01  0.3566593E+01 -0.1570753E+01  0.2456328E+03 -0.6875635E-02  0.1113771E+02 -0.1570752E+01
  0.2914141E+01  0.4101044E+01 -0.1570730E+01  0.2430175E+03 -0.9051908E-02  0.1280663E+02 -0.1570730E+01
  0.3115151E+01  0.4667033E+01 -0.1570700E+01  0.2402395E+03 -0.1168214E-01  0.1457403E+02 -0.1570701E+01
  0.3316161E+01  0.5264879E+01 -0.1570660E+01  0.2372982E+03 -0.1481427E-01  0.1644091E+02 -0.1570661E+01
  0.3517171E+01  0.5896142E+01 -0.1570608E+01  0.2342139E+03 -0.1849690E-01  0.1841211E+02 -0.1570608E+01
  0.3718182E+01  0.6557681E+01 -0.1570542E+01  0.2309915E+03 -0.2277626E-01  0.2047780E+02 -0.1570542E+01
  0.3919192E+01  0.7246561E+01 -0.1570460E+01  0.2276301E+03 -0.2769521E-01  0.2262887E+02 -0.1570460E+01
  0.4120202E+01  0.7962121E+01 -0.1570358E+01  0.2241597E+03 -0.3329833E-01  0.2486326E+02 -0.1570358E+01
  0.4321212E+01  0.8705745E+01 -0.1570237E+01  0.2206013E+03 -0.3962801E-01  0.2718525E+02 -0.1570237E+01
  0.4522222E+01  0.9474882E+01 -0.1570093E+01  0.2169371E+03 -0.4671708E-01  0.2958683E+02 -0.1570093E+01
  0.4723232E+01  0.1026632E+02 -0.1569924E+01  0.2132077E+03 -0.5460440E-01  0.3205807E+02 -0.1569924E+01
  0.4924242E+01  0.1107667E+02 -0.1569732E+01  0.2094109E+03 -0.6331846E-01  0.3458831E+02 -0.1569732E+01
  0.5125252E+01  0.1190567E+02 -0.1569516E+01  0.2055522E+03 -0.7288445E-01  0.3717680E+02 -0.1569516E+01
  0.5326262E+01  0.1275275E+02 -0.1569277E+01  0.2016693E+03 -0.8333612E-01  0.3982164E+02 -0.1569277E+01
  0.5527273E+01  0.1361573E+02 -0.1569020E+01  0.1977656E+03 -0.9469516E-01  0.4251606E+02 -0.1569020E+01
  0.5728283E+01  0.1449093E+02 -0.1568747E+01  0.1938442E+03 -0.1069786E+00  0.4524869E+02 -0.1568747E+01
  0.5929293E+01  0.1537557E+02 -0.1568467E+01  0.1899097E+03 -0.1201954E+00  0.4801064E+02 -0.1568467E+01
  0.6130303E+01  0.1626503E+02 -0.1568186E+01  0.1859808E+03 -0.1343611E+00  0.5078769E+02 -0.1568186E+01
  0.6331313E+01  0.1715810E+02 -0.1567919E+01  0.1820675E+03 -0.1494907E+00  0.5357595E+02 -0.1567919E+01
  0.6532323E+01  0.1805161E+02 -0.1567679E+01  0.1781787E+03 -0.1655883E+00  0.5636557E+02 -0.1567679E+01
  0.6733334E+01  0.1894415E+02 -0.1567488E+01  0.1743317E+03 -0.1826772E+00  0.5915210E+02 -0.1567488E+01
  0.6934343E+01  0.1983158E+02 -0.1567366E+01  0.1705074E+03 -0.2007365E+00  0.6192257E+02 -0.1567366E+01
  0.7135354E+01  0.2070983E+02 -0.1567337E+01  0.1667391E+03 -0.2197978E+00  0.6466431E+02 -0.1567337E+01
  0.7336363E+01  0.2157503E+02 -0.1567433E+01  0.1630148E+03 -0.2398377E+00  0.6736530E+02 -0.1567433E+01
  0.7537374E+01  0.2242269E+02 -0.1567685E+01  0.1593514E+03 -0.2608663E+00  0.7001150E+02 -0.1567685E+01
  0.7738384E+01  0.2324924E+02 -0.1568133E+01  0.1557329E+03 -0.2828505E+00  0.7259170E+02 -0.1568133E+01
  0.7939394E+01  0.2405205E+02 -0.1568824E+01  0.1521603E+03 -0.3057874E+00  0.7509766E+02 -0.1568824E+01
  0.8140405E+01  0.2482714E+02 -0.1569803E+01  0.1486615E+03 -0.3297011E+00  0.7751714E+02 -0.1569803E+01
  0.8341414E+01  0.2557182E+02 -0.1571124E+01  0.1452369E+03 -0.3545969E+00  0.7984161E+02 -0.1571124E+01
  0.8542424E+01  0.2628257E+02 -0.1572842E+01  0.1418799E+03 -0.3804569E+00  0.8206006E+02 -0.1572842E+01
  0.8743435E+01  0.2695652E+02 -0.1575017E+01  0.1385865E+03 -0.4072547E+00  0.8416352E+02 -0.1575017E+01
  0.8944445E+01  0.2759071E+02 -0.1577712E+01  0.1353520E+03 -0.4349631E+00  0.8614288E+02 -0.1577713E+01
  0.9145455E+01  0.2818229E+02 -0.1580991E+01  0.1321708E+03 -0.4635587E+00  0.8798915E+02 -0.1580991E+01
  0.9346465E+01  0.2872871E+02 -0.1584917E+01  0.1290745E+03 -0.4931090E+00  0.8969435E+02 -0.1584917E+01
  0.9547475E+01  0.2922834E+02 -0.1589558E+01  0.1260537E+03 -0.5235890E+00  0.9125341E+02 -0.1589558E+01
  0.9748485E+01  0.2967933E+02 -0.1594978E+01  0.1231022E+03 -0.5549968E+00  0.9266068E+02 -0.1594978E+01
  0.9949495E+01  0.3008115E+02 -0.1601248E+01  0.1202183E+03 -0.5872920E+00  0.9391435E+02 -0.1601248E+01
  0.1015051E+02  0.3043345E+02 -0.1608430E+01  0.1174138E+03 -0.6205247E+00  0.9501327E+02 -0.1608430E+01
  0.1035151E+02  0.3073522E+02 -0.1616583E+01  0.1146697E+03 -0.6545991E+00  0.9595464E+02 -0.1616583E+01
  0.1055252E+02  0.3098742E+02 -0.1625777E+01  0.1119872E+03 -0.6894999E+00  0.9674103E+02 -0.1625777E+01
  0.1075354E+02  0.3119053E+02 -0.1636050E+01  0.1093822E+03 -0.7253419E+00  0.9737429E+02 -0.1636050E+01
  0.1095455E+02  0.3134605E+02 -0.1647465E+01  0.1068533E+03 -0.7621149E+00  0.9785909E+02 -0.1647465E+01
  0.1115556E+02  0.3145496E+02 -0.1660061E+01  0.1043883E+03 -0.7997583E+00  0.9819802E+02 -0.1660061E+01
  0.1135657E+02  0.3151916E+02 -0.1673893E+01  0.1019846E+03 -0.8382328E+00  0.9839749E+02 -0.1673893E+01
  0.1155758E+02  0.3154093E+02 -0.1689004E+01  0.9964474E+02 -0.8775564E+00  0.9846455E+02 -0.1689003E+01
  0.1175859E+02  0.3152237E+02 -0.1705407E+01  0.9736803E+02 -0.9177400E+00  0.9840559E+02 -0.1705407E+01
  0.1195960E+02  0.3146466E+02 -0.1723112E+01  0.9514655E+02 -0.9587396E+00  0.9822446E+02 -0.1723112E+01
  0.1216061E+02  0.3136922E+02 -0.1742143E+01  0.9297469E+02 -0.1000514E+01  0.9792581E+02 -0.1742142E+01
  0.1236162E+02  0.3124247E+02 -0.1762573E+01  0.9086686E+02 -0.1043144E+01  0.9752914E+02 -0.1762572E+01
  0.1256263E+02  0.3108496E+02 -0.1784401E+01  0.8881972E+02 -0.1086634E+01  0.9703655E+02 -0.1784401E+01
  0.1276364E+02  0.3089854E+02 -0.1807601E+01  0.8682671E+02 -0.1130980E+01  0.9645368E+02 -0.1807601E+01
  0.1296465E+02  0.3068540E+02 -0.1832180E+01  0.8488386E+02 -0.1176149E+01  0.9578761E+02 -0.1832179E+01
  0.1316566E+02  0.3044959E+02 -0.1858158E+01  0.8299291E+02 -0.1222163E+01  0.9505026E+02 -0.1858158E+01
  0.1336667E+02  0.3019401E+02 -0.1885572E+01  0.8115405E+02 -0.1269011E+01  0.9425181E+02 -0.1885572E+01
  0.1356768E+02  0.2991925E+02 -0.1914356E+01  0.7936523E+02 -0.1316752E+01  0.9339309E+02 -0.1914356E+01
  0.1376869E+02  0.2962769E+02 -0.1944522E+01  0.7762151E+02 -0.1365221E+01  0.9248215E+02 -0.1944521E+01
  0.1396970E+02  0.2932109E+02 -0.1976062E+01  0.7591961E+02 -0.1414384E+01  0.9152409E+02 -0.1976062E+01
  0.1417071E+02  0.2900251E+02 -0.2008972E+01  0.7425990E+02 -0.1464283E+01  0.9052885E+02 -0.2008972E+01
  0.1437172E+02  0.2867300E+02 -0.2043248E+01  0.7265151E+02 -0.1515212E+01  0.8949947E+02 -0.2043247E+01
  0.1457273E+02  0.2833376E+02 -0.2078850E+01  0.7108302E+02 -0.1566957E+01  0.8843963E+02 -0.2078850E+01
  0.1477374E+02  0.2798733E+02 -0.2115783E+01  0.6955225E+02 -0.1619401E+01  0.8735763E+02 -0.2115782E+01
  0.1497475E+02  0.2763434E+02 -0.2154028E+01  0.6805890E+02 -0.1672587E+01  0.8625491E+02 -0.2154027E+01
  0.1517576E+02  0.2727477E+02 -0.2193524E+01  0.6660014E+02 -0.1726610E+01  0.8513177E+02 -0.2193523E+01
  0.1537677E+02  0.2691223E+02 -0.2234321E+01  0.6517690E+02 -0.1781514E+01  0.8399934E+02 -0.2234321E+01
  0.1557778E+02  0.2654863E+02 -0.2276421E+01  0.6379065E+02 -0.1837246E+01  0.8286372E+02 -0.2276421E+01
  0.1577879E+02  0.2618221E+02 -0.2319754E+01  0.6244063E+02 -0.1893623E+01  0.8171944E+02 -0.2319753E+01
  0.1597980E+02  0.2581437E+02 -0.2364294E+01  0.6112462E+02 -0.1950725E+01  0.8057035E+02 -0.2364295E+01
  0.1618081E+02  0.2544530E+02 -0.2409982E+01  0.5983709E+02 -0.2008483E+01  0.7941763E+02 -0.2409981E+01
  0.1638182E+02  0.2507792E+02 -0.2456877E+01  0.5858192E+02 -0.2066954E+01  0.7827031E+02 -0.2456875E+01
  0.1658283E+02  0.2471286E+02 -0.2505056E+01  0.5736306E+02 -0.2126639E+01  0.7713007E+02 -0.2505055E+01
  0.1678384E+02  0.2434897E+02 -0.2554369E+01  0.5616924E+02 -0.2187105E+01  0.7599365E+02 -0.2554368E+01
  0.1698485E+02  0.2398681E+02 -0.2604836E+01  0.5499939E+02 -0.2248384E+01  0.7486272E+02 -0.2604835E+01
  0.1718586E+02  0.2362745E+02 -0.2656440E+01  0.5385517E+02 -0.2310504E+01  0.7374054E+02 -0.2656436E+01
  0.1738687E+02  0.2326998E+02 -0.2709119E+01  0.5273046E+02 -0.2373346E+01  0.7262411E+02 -0.2709118E+01
  0.1758788E+02  0.2291482E+02 -0.2762875E+01  0.5162572E+02 -0.2436948E+01  0.7151505E+02 -0.2762873E+01
  0.1778889E+02  0.2256467E+02 -0.2817743E+01  0.5053898E+02 -0.2501528E+01  0.7042146E+02 -0.2817741E+01
  0.1798990E+02  0.2221785E+02 -0.2873758E+01  0.4947326E+02 -0.2567120E+01  0.6933837E+02 -0.2873756E+01
  0.1819091E+02  0.2187579E+02 -0.2930873E+01  0.4843787E+02 -0.2633124E+01  0.6827028E+02 -0.2930871E+01
  0.1839192E+02  0.2153880E+02 -0.2988975E+01  0.4742322E+02 -0.2699735E+01  0.6721790E+02 -0.2988972E+01
  0.1859293E+02  0.2120482E+02 -0.3048007E+01  0.4642876E+02 -0.2766864E+01  0.6617485E+02 -0.3048004E+01
  0.1879394E+02  0.2087556E+02 -0.3108037E+01  0.4544508E+02 -0.2834495E+01  0.6514662E+02 -0.3108034E+01
  0.1899495E+02  0.2055309E+02  0.3114012E+01  0.4447820E+02 -0.2903125E+01  0.6413957E+02  0.3114014E+01
  0.1919596E+02  0.2023419E+02  0.3051717E+01  0.4352885E+02 -0.2973611E+01  0.6314379E+02  0.3051720E+01
  0.1939697E+02  0.1991963E+02  0.2988466E+01  0.4257608E+02 -0.3045090E+01  0.6216151E+02  0.2988467E+01
  0.1959798E+02  0.1960868E+02  0.2924201E+01  0.4162745E+02 -0.3117457E+01  0.6119050E+02  0.2924203E+01
  0.1979899E+02  0.1930137E+02  0.2858965E+01  0.4068167E+02  0.3092290E+01  0.6023101E+02  0.2858969E+01
  0.2000000E+02  0.1899726E+02  0.2792909E+01  0.3971217E+02  0.3017633E+01  0.5928135E+02  0.2792913E+01
