VARIABLES="w (rad/s)"
"abs(F   1   1)" "angle(F   1   1)"
"abs(F   1   2)" "angle(F   1   2)"
"abs(F   1   3)" "angle(F   1   3)"
Zone t="FKforce - beta =   0.000",I=   100,F=POINT
  0.1000000E+00  0.4111114E-02 -0.1571199E+01  0.2625486E+03  0.2771280E-12  0.1283774E-01 -0.1571005E+01
  0.3010101E+00  0.3724646E-01 -0.1570693E+01  0.2625154E+03 -0.8647486E-11  0.1163093E+00 -0.1570806E+01
  0.5020202E+00  0.1035840E+00 -0.1570798E+01  0.2624489E+03 -0.2883227E-11  0.3234608E+00 -0.1570790E+01
  0.7030303E+00  0.2030904E+00 -0.1570810E+01  0.2623488E+03 -0.4481799E-10  0.6341878E+00 -0.1570791E+01
  0.9040404E+00  0.3357150E+00 -0.1570790E+01  0.2622148E+03 -0.5327632E-11  0.1048333E+01 -0.1570797E+01
  0.1105051E+01  0.5013899E+00 -0.1570800E+01  0.2620468E+03  0.9773588E-10  0.1565683E+01 -0.1570797E+01
  0.1306061E+01  0.7000291E+00 -0.1570794E+01  0.2618443E+03 -0.5157332E-10  0.2185969E+01 -0.1570800E+01
  0.1507071E+01  0.9315289E+00 -0.1570794E+01  0.2616064E+03  0.9256037E-10  0.2908863E+01 -0.1570794E+01
  0.1708081E+01  0.1195764E+01 -0.1570798E+01  0.2613329E+03 -0.2138245E-09  0.3733982E+01 -0.1570797E+01
  0.1909091E+01  0.1492592E+01 -0.1570798E+01  0.2610228E+03 -0.3318216E-09  0.4660874E+01 -0.1570797E+01
  0.2110101E+01  0.1821846E+01 -0.1570796E+01  0.2606751E+03 -0.3572733E-11  0.5689023E+01 -0.1570796E+01
  0.2311111E+01  0.2183339E+01 -0.1570796E+01  0.2602892E+03  0.6082652E-09  0.6817822E+01 -0.1570796E+01
  0.2512121E+01  0.2576858E+01 -0.1570797E+01  0.2598641E+03 -0.4802403E-09  0.8046639E+01 -0.1570796E+01
  0.2713131E+01  0.3002175E+01 -0.1570797E+01  0.2593985E+03 -0.3733929E-09  0.9374734E+01 -0.1570796E+01
  0.2914141E+01  0.3459016E+01 -0.1570796E+01  0.2588915E+03 -0.9496994E-09  0.1080127E+02 -0.1570796E+01
  0.3115151E+01  0.3947095E+01 -0.1570796E+01  0.2583415E+03  0.2739804E-09  0.1232533E+02 -0.1570797E+01
  0.3316161E+01  0.4466093E+01 -0.1570796E+01  0.2577478E+03  0.9394605E-09  0.1394594E+02 -0.1570797E+01
  0.3517171E+01  0.5015659E+01 -0.1570796E+01  0.2571084E+03  0.3071706E-08  0.1566199E+02 -0.1570796E+01
  0.3718182E+01  0.5595407E+01 -0.1570796E+01  0.2564220E+03  0.1016958E-09  0.1747227E+02 -0.1570796E+01
  0.3919192E+01  0.6204915E+01 -0.1570796E+01  0.2556873E+03 -0.1267565E-08  0.1937546E+02 -0.1570796E+01
  0.4120202E+01  0.6843725E+01 -0.1570796E+01  0.2549024E+03 -0.1622218E-08  0.2137016E+02 -0.1570796E+01
  0.4321212E+01  0.7511339E+01 -0.1570796E+01  0.2540659E+03  0.3313769E-08  0.2345478E+02 -0.1570796E+01
  0.4522222E+01  0.8207232E+01 -0.1570796E+01  0.2531758E+03  0.1912852E-08  0.2562767E+02 -0.1570796E+01
  0.4723232E+01  0.8930791E+01 -0.1570796E+01  0.2522305E+03  0.4430817E-09  0.2788700E+02 -0.1570796E+01
  0.4924242E+01  0.9681436E+01 -0.1570796E+01  0.2512279E+03 -0.2283563E-08  0.3023081E+02 -0.1570796E+01
  0.5125252E+01  0.1045844E+02 -0.1570796E+01  0.2501667E+03  0.3931285E-08  0.3265697E+02 -0.1570796E+01
  0.5326262E+01  0.1126110E+02 -0.1570796E+01  0.2490443E+03  0.4218252E-08  0.3516319E+02 -0.1570796E+01
  0.5527273E+01  0.1208865E+02 -0.1570796E+01  0.2478595E+03  0.2645253E-08  0.3774708E+02 -0.1570796E+01
  0.5728283E+01  0.1294022E+02 -0.1570796E+01  0.2466095E+03  0.9063619E-10  0.4040604E+02 -0.1570796E+01
  0.5929293E+01  0.1381495E+02 -0.1570796E+01  0.2452928E+03  0.1518712E-09  0.4313721E+02 -0.1570796E+01
  0.6130303E+01  0.1471186E+02 -0.1570796E+01  0.2439073E+03  0.2443742E-09  0.4593766E+02 -0.1570796E+01
  0.6331313E+01  0.1562995E+02 -0.1570796E+01  0.2424507E+03  0.2212581E-08  0.4880420E+02 -0.1570796E+01
  0.6532323E+01  0.1656812E+02 -0.1570796E+01  0.2409214E+03  0.3587341E-08  0.5173349E+02 -0.1570796E+01
  0.6733334E+01  0.1752524E+02 -0.1570796E+01  0.2393168E+03 -0.9339813E-09  0.5472188E+02 -0.1570796E+01
  0.6934343E+01  0.1850010E+02 -0.1570796E+01  0.2376355E+03  0.2508238E-08  0.5776561E+02 -0.1570796E+01
  0.7135354E+01  0.1949140E+02 -0.1570796E+01  0.2358750E+03 -0.6317399E-09  0.6086069E+02 -0.1570796E+01
  0.7336363E+01  0.2049777E+02 -0.1570796E+01  0.2340334E+03 -0.1273422E-09  0.6400282E+02 -0.1570796E+01
  0.7537374E+01  0.2151779E+02 -0.1570796E+01  0.2321086E+03 -0.6034714E-08  0.6718755E+02 -0.1570796E+01
  0.7738384E+01  0.2254995E+02 -0.1570796E+01  0.2300992E+03 -0.8159725E-08  0.7041016E+02 -0.1570796E+01
  0.7939394E+01  0.2359266E+02 -0.1570796E+01  0.2280029E+03 -0.3267757E-09  0.7366560E+02 -0.1570796E+01
  0.8140405E+01  0.2464422E+02 -0.1570796E+01  0.2258180E+03  0.6004861E-08  0.7694878E+02 -0.1570796E+01
  0.8341414E+01  0.2570294E+02 -0.1570796E+01  0.2235427E+03  0.9065642E-08  0.8025429E+02 -0.1570796E+01
  0.8542424E+01  0.2676693E+02 -0.1570796E+01  0.2211755E+03  0.4716080E-08  0.8357625E+02 -0.1570796E+01
  0.8743435E+01  0.2783435E+02 -0.1570796E+01  0.2187149E+03 -0.1090088E-08  0.8690884E+02 -0.1570796E+01
  0.8944445E+01  0.2890316E+02 -0.1570796E+01  0.2161593E+03 -0.8065513E-08  0.9024583E+02 -0.1570796E+01
  0.9145455E+01  0.2997130E+02 -0.1570796E+01  0.2135074E+03  0.1395845E-09  0.9358075E+02 -0.1570796E+01
  0.9346465E+01  0.3103660E+02 -0.1570796E+01  0.2107584E+03  0.1802916E-07  0.9690675E+02 -0.1570796E+01
  0.9547475E+01  0.3209691E+02 -0.1570796E+01  0.2079109E+03  0.1361747E-08  0.1002171E+03 -0.1570796E+01
  0.9748485E+01  0.3314983E+02 -0.1570796E+01  0.2049638E+03  0.8724172E-09  0.1035045E+03 -0.1570796E+01
  0.9949495E+01  0.3419305E+02 -0.1570796E+01  0.2019170E+03  0.1623566E-08  0.1067616E+03 -0.1570796E+01
  0.1015051E+02  0.3522407E+02 -0.1570796E+01  0.1987695E+03 -0.6447164E-08  0.1099805E+03 -0.1570796E+01
  0.1035151E+02  0.3624038E+02 -0.1570796E+01  0.1955213E+03 -0.8993072E-08  0.1131537E+03 -0.1570796E+01
  0.1055252E+02  0.3723938E+02 -0.1570796E+01  0.1921722E+03  0.5427847E-08  0.1162727E+03 -0.1570796E+01
  0.1075354E+02  0.3821844E+02 -0.1570796E+01  0.1887223E+03 -0.8211647E-08  0.1193296E+03 -0.1570796E+01
  0.1095455E+02  0.3917478E+02 -0.1570796E+01  0.1851717E+03  0.2349786E-07  0.1223157E+03 -0.1570796E+01
  0.1115556E+02  0.4010576E+02 -0.1570796E+01  0.1815211E+03  0.1050758E-07  0.1252223E+03 -0.1570796E+01
  0.1135657E+02  0.4100844E+02 -0.1570796E+01  0.1777719E+03 -0.9388041E-08  0.1280407E+03 -0.1570796E+01
  0.1155758E+02  0.4188001E+02 -0.1570796E+01  0.1739248E+03  0.8053533E-08  0.1307621E+03 -0.1570796E+01
  0.1175859E+02  0.4271758E+02 -0.1570796E+01  0.1699811E+03 -0.3506545E-08  0.1333773E+03 -0.1570796E+01
  0.1195960E+02  0.4351825E+02 -0.1570796E+01  0.1659429E+03  0.2316761E-07  0.1358774E+03 -0.1570796E+01
  0.1216061E+02  0.4427902E+02 -0.1570796E+01  0.1618117E+03  0.2210148E-08  0.1382533E+03 -0.1570796E+01
  0.1236162E+02  0.4499701E+02 -0.1570796E+01  0.1575905E+03  0.1872212E-07  0.1404954E+03 -0.1570796E+01
  0.1256263E+02  0.4566922E+02 -0.1570796E+01  0.1532817E+03  0.5249569E-08  0.1425947E+03 -0.1570796E+01
  0.1276364E+02  0.4629279E+02 -0.1570796E+01  0.1488882E+03  0.1701409E-07  0.1445421E+03 -0.1570796E+01
  0.1296465E+02  0.4686477E+02 -0.1570796E+01  0.1444137E+03  0.6603766E-08  0.1463288E+03 -0.1570796E+01
  0.1316566E+02  0.4738230E+02 -0.1570796E+01  0.1398617E+03  0.1491590E-07  0.1479451E+03 -0.1570796E+01
  0.1336667E+02  0.4784243E+02 -0.1570796E+01  0.1352363E+03  0.2203722E-09  0.1493828E+03 -0.1570796E+01
  0.1356768E+02  0.4824253E+02 -0.1570796E+01  0.1305422E+03 -0.3310298E-07  0.1506329E+03 -0.1570796E+01
  0.1376869E+02  0.4857980E+02 -0.1570796E+01  0.1257841E+03  0.1113582E-07  0.1516871E+03 -0.1570796E+01
  0.1396970E+02  0.4885171E+02 -0.1570796E+01  0.1209673E+03 -0.1576747E-07  0.1525372E+03 -0.1570796E+01
  0.1417071E+02  0.4905568E+02 -0.1570796E+01  0.1160974E+03  0.7701034E-09  0.1531754E+03 -0.1570796E+01
  0.1437172E+02  0.4918929E+02 -0.1570796E+01  0.1111804E+03 -0.3484699E-08  0.1535942E+03 -0.1570796E+01
  0.1457273E+02  0.4925038E+02 -0.1570796E+01  0.1062225E+03  0.3871798E-07  0.1537865E+03 -0.1570796E+01
  0.1477374E+02  0.4923670E+02 -0.1570796E+01  0.1012307E+03 -0.3473922E-07  0.1537457E+03 -0.1570796E+01
  0.1497475E+02  0.4914642E+02 -0.1570796E+01  0.9621179E+02  0.4677338E-07  0.1534657E+03 -0.1570796E+01
  0.1517576E+02  0.4897766E+02 -0.1570796E+01  0.9117340E+02  0.1667063E-07  0.1529409E+03 -0.1570796E+01
  0.1537677E+02  0.4872898E+02 -0.1570796E+01  0.8612325E+02 -0.7612940E-08  0.1521667E+03 -0.1570796E+01
  0.1557778E+02  0.4839885E+02 -0.1570796E+01  0.8106944E+02 -0.1470459E-08  0.1511386E+03 -0.1570796E+01
  0.1577879E+02  0.4798629E+02 -0.1570796E+01  0.7602037E+02 -0.3528277E-07  0.1498531E+03 -0.1570796E+01
  0.1597980E+02  0.4749037E+02 -0.1570796E+01  0.7098468E+02 -0.4198416E-09  0.1483073E+03 -0.1570796E+01
  0.1618081E+02  0.4691043E+02 -0.1570796E+01  0.6597149E+02  0.6053389E-07  0.1464997E+03 -0.1570796E+01
  0.1638182E+02  0.4624618E+02 -0.1570796E+01  0.6098988E+02  0.5912590E-07  0.1444290E+03 -0.1570796E+01
  0.1658283E+02  0.4549759E+02 -0.1570796E+01  0.5604940E+02 -0.3190292E-08  0.1420949E+03 -0.1570796E+01
  0.1678384E+02  0.4466494E+02 -0.1570796E+01  0.5115958E+02  0.2912683E-08  0.1394987E+03 -0.1570796E+01
  0.1698485E+02  0.4374881E+02 -0.1570796E+01  0.4633025E+02 -0.9005618E-08  0.1366420E+03 -0.1570796E+01
  0.1718586E+02  0.4275009E+02 -0.1570796E+01  0.4157127E+02 -0.5233349E-07  0.1335277E+03 -0.1570796E+01
  0.1738687E+02  0.4167014E+02 -0.1570796E+01  0.3689273E+02 -0.4766081E-07  0.1301596E+03 -0.1570796E+01
  0.1758788E+02  0.4051056E+02 -0.1570796E+01  0.3230455E+02 -0.1153178E-06  0.1265433E+03 -0.1570796E+01
  0.1778889E+02  0.3927334E+02 -0.1570796E+01  0.2781684E+02 -0.5464022E-07  0.1226847E+03 -0.1570796E+01
  0.1798990E+02  0.3796093E+02 -0.1570796E+01  0.2343962E+02  0.5085803E-08  0.1185914E+03 -0.1570796E+01
  0.1819091E+02  0.3657606E+02 -0.1570796E+01  0.1918273E+02  0.1040913E-06  0.1142720E+03 -0.1570796E+01
  0.1839192E+02  0.3512185E+02 -0.1570796E+01  0.1505598E+02 -0.1385604E-06  0.1097363E+03 -0.1570796E+01
  0.1859293E+02  0.3360191E+02 -0.1570796E+01  0.1106897E+02 -0.2692420E-08  0.1049954E+03 -0.1570796E+01
  0.1879394E+02  0.3202011E+02 -0.1570796E+01  0.7231073E+01  0.0000000E+00  0.1000614E+03 -0.1570796E+01
  0.1899495E+02  0.3038078E+02 -0.1570796E+01  0.3551256E+01 -0.4867390E-06  0.9494786E+02 -0.1570796E+01
  0.1919596E+02  0.2868859E+02 -0.1570796E+01  0.3827094E-01 -0.1129143E-03  0.8966930E+02 -0.1570796E+01
  0.1939697E+02  0.2694864E+02 -0.1570796E+01  0.3299619E+01  0.3141592E+01  0.8424166E+02 -0.1570796E+01
  0.1959798E+02  0.2516628E+02 -0.1570796E+01  0.6454581E+01 -0.3141592E+01  0.7868159E+02 -0.1570796E+01
  0.1979899E+02  0.2334727E+02 -0.1570796E+01  0.9419346E+01  0.3141593E+01  0.7300720E+02 -0.1570796E+01
  0.2000000E+02  0.2149774E+02 -0.1570796E+01  0.1218710E+02 -0.3141593E+01  0.6723744E+02 -0.1570796E+01
