 VARIABLES="Time (s)"
"AddedMass    1" "IRF    1"
"AddedMass    2" "IRF    2"
"AddedMass    3" "IRF    3"
Zone t="DoF    1",I=   800,F=POINT
  0.0000000E+00  0.6965490E-01  0.4043167E+01 -0.1116540E-07 -0.6471388E-06  0.2175991E+00  0.1261970E+02
  0.1000000E-01  0.6965490E-01  0.3994079E+01 -0.1116540E-07 -0.6429469E-06  0.2175991E+00  0.1246649E+02
  0.2000000E-01  0.6965490E-01  0.3848173E+01 -0.1116540E-07 -0.6304515E-06  0.2175991E+00  0.1201111E+02
  0.3000000E-01  0.6965490E-01  0.3609477E+01 -0.1116540E-07 -0.6098936E-06  0.2175991E+00  0.1126612E+02
  0.4000000E-01  0.6965490E-01  0.3284572E+01 -0.1116540E-07 -0.5816677E-06  0.2175991E+00  0.1025206E+02
  0.5000000E-01  0.6965490E-01  0.2882394E+01 -0.1116540E-07 -0.5463141E-06  0.2175991E+00  0.8996835E+01
  0.6000000E-01  0.6965490E-01  0.2413963E+01 -0.1116540E-07 -0.5045071E-06  0.2175991E+00  0.7534821E+01
  0.7000000E-01  0.6965490E-01  0.1892060E+01 -0.1116540E-07 -0.4570387E-06  0.2175991E+00  0.5905911E+01
  0.8000000E-01  0.6965490E-01  0.1330842E+01 -0.1116540E-07 -0.4048033E-06  0.2175991E+00  0.4154291E+01
  0.9000000E-01  0.6965490E-01  0.7454222E+00 -0.1116540E-07 -0.3487756E-06  0.2175991E+00  0.2327129E+01
  0.9999999E-01  0.6965490E-01  0.1514271E+00 -0.1116540E-07 -0.2899909E-06  0.2175991E+00  0.4731934E+00
  0.1100000E+00  0.6965490E-01 -0.4354618E+00 -0.1116540E-07 -0.2295214E-06  0.2175991E+00 -0.1358575E+01
  0.1200000E+00  0.6965490E-01 -0.9999648E+00 -0.1116540E-07 -0.1684534E-06  0.2175991E+00 -0.3120485E+01
  0.1300000E+00  0.6965490E-01 -0.1527642E+01 -0.1116540E-07 -0.1078634E-06  0.2175991E+00 -0.4767473E+01
  0.1400000E+00  0.6965490E-01 -0.2005306E+01 -0.1116540E-07 -0.4879505E-07  0.2175991E+00 -0.6258374E+01
  0.1500000E+00  0.6965490E-01 -0.2421381E+01 -0.1116540E-07  0.7762836E-08  0.2175991E+00 -0.7557065E+01
  0.1600000E+00  0.6965490E-01 -0.2766227E+01 -0.1116540E-07  0.6089748E-07  0.2175991E+00 -0.8633452E+01
  0.1700000E+00  0.6965490E-01 -0.3032382E+01 -0.1116540E-07  0.1097904E-06  0.2175991E+00 -0.9464252E+01
  0.1800000E+00  0.6965490E-01 -0.3214750E+01 -0.1116540E-07  0.1537342E-06  0.2175991E+00 -0.1003356E+02
  0.1900000E+00  0.6965490E-01 -0.3310707E+01 -0.1116540E-07  0.1921463E-06  0.2175991E+00 -0.1033317E+02
  0.2000000E+00  0.6965490E-01 -0.3320128E+01 -0.1116540E-07  0.2245792E-06  0.2175991E+00 -0.1036270E+02
  0.2100000E+00  0.6965490E-01 -0.3245348E+01 -0.1116540E-07  0.2507278E-06  0.2175991E+00 -0.1012943E+02
  0.2200000E+00  0.6965490E-01 -0.3091030E+01 -0.1116540E-07  0.2704332E-06  0.2175991E+00 -0.9647926E+01
  0.2300000E+00  0.6965490E-01 -0.2863989E+01 -0.1116540E-07  0.2836830E-06  0.2175991E+00 -0.8939441E+01
  0.2400000E+00  0.6965490E-01 -0.2572931E+01 -0.1116540E-07  0.2906080E-06  0.2175991E+00 -0.8031138E+01
  0.2500000E+00  0.6965490E-01 -0.2228148E+01 -0.1116540E-07  0.2914753E-06  0.2175991E+00 -0.6955153E+01
  0.2600000E+00  0.6965490E-01 -0.1841176E+01 -0.1116540E-07  0.2866780E-06  0.2175991E+00 -0.5747472E+01
  0.2700000E+00  0.6965490E-01 -0.1424409E+01 -0.1116540E-07  0.2767229E-06  0.2175991E+00 -0.4446784E+01
  0.2800000E+00  0.6965490E-01 -0.9907038E+00 -0.1116540E-07  0.2622144E-06  0.2175991E+00 -0.3093212E+01
  0.2900000E+00  0.6965490E-01 -0.5529832E+00 -0.1116540E-07  0.2438368E-06  0.2175991E+00 -0.1727086E+01
  0.3000000E+00  0.6965490E-01 -0.1238325E+00 -0.1116540E-07  0.2223350E-06  0.2175991E+00 -0.3876846E+00
  0.3100000E+00  0.6965490E-01  0.2848728E+00 -0.1116540E-07  0.1984935E-06  0.2175991E+00  0.8879302E+00
  0.3200000E+00  0.6965490E-01  0.6623051E+00 -0.1116540E-07  0.1731154E-06  0.2175991E+00  0.2065962E+01
  0.3300000E+00  0.6965490E-01  0.9989923E+00 -0.1116540E-07  0.1470002E-06  0.2175991E+00  0.3116850E+01
  0.3400000E+00  0.6965490E-01  0.1287067E+01 -0.1116540E-07  0.1209244E-06  0.2175991E+00  0.4016037E+01
  0.3500000E+00  0.6965490E-01  0.1520455E+01 -0.1116540E-07  0.9561987E-07  0.2175991E+00  0.4744562E+01
  0.3600000E+00  0.6965490E-01  0.1695008E+01 -0.1116540E-07  0.7175689E-07  0.2175991E+00  0.5289481E+01
  0.3700000E+00  0.6965490E-01  0.1808571E+01 -0.1116540E-07  0.4992714E-07  0.2175991E+00  0.5644057E+01
  0.3800000E+00  0.6965490E-01  0.1860974E+01 -0.1116540E-07  0.3063073E-07  0.2175991E+00  0.5807761E+01
  0.3900000E+00  0.6965490E-01  0.1853970E+01 -0.1116540E-07  0.1426493E-07  0.2175991E+00  0.5786063E+01
  0.4000000E+00  0.6965490E-01  0.1791110E+01 -0.1116540E-07  0.1116160E-08  0.2175991E+00  0.5590038E+01
  0.4100000E+00  0.6965490E-01  0.1677558E+01 -0.1116540E-07 -0.8643561E-08  0.2175991E+00  0.5235801E+01
  0.4200000E+00  0.6965490E-01  0.1519867E+01 -0.1116540E-07 -0.1495791E-07  0.2175991E+00  0.4743799E+01
  0.4300000E+00  0.6965490E-01  0.1325709E+01 -0.1116540E-07 -0.1788386E-07  0.2175991E+00  0.4137973E+01
  0.4400000E+00  0.6965490E-01  0.1103580E+01 -0.1116540E-07 -0.1758611E-07  0.2175991E+00  0.3444836E+01
  0.4500000E+00  0.6965490E-01  0.8624885E+00 -0.1116540E-07 -0.1432751E-07  0.2175991E+00  0.2692504E+01
  0.4600000E+00  0.6965490E-01  0.6116352E+00 -0.1116540E-07 -0.8457683E-08  0.2175991E+00  0.1909684E+01
  0.4700000E+00  0.6965490E-01  0.3600941E+00 -0.1116540E-07 -0.3991949E-09  0.2175991E+00  0.1124696E+01
  0.4800000E+00  0.6965490E-01  0.1165172E+00 -0.1116540E-07  0.9369186E-08  0.2175991E+00  0.3645446E+00
  0.4900000E+00  0.6965490E-01 -0.1111474E+00 -0.1116540E-07  0.2032990E-07  0.2175991E+00 -0.3459665E+00
  0.5000000E+00  0.6965490E-01 -0.3158950E+00 -0.1116540E-07  0.3194493E-07  0.2175991E+00 -0.9849769E+00
  0.5100000E+00  0.6965490E-01 -0.4918661E+00 -0.1116540E-07  0.4367527E-07  0.2175991E+00 -0.1534198E+01
  0.5200000E+00  0.6965490E-01 -0.6345057E+00 -0.1116540E-07  0.5499907E-07  0.2175991E+00 -0.1979412E+01
  0.5300000E+00  0.6965490E-01 -0.7406667E+00 -0.1116540E-07  0.6542994E-07  0.2175991E+00 -0.2310796E+01
  0.5400000E+00  0.6965490E-01 -0.8086601E+00 -0.1116540E-07  0.7453314E-07  0.2175991E+00 -0.2523076E+01
  0.5500000E+00  0.6965490E-01 -0.8382586E+00 -0.1116540E-07  0.8193989E-07  0.2175991E+00 -0.2615542E+01
  0.5600000E+00  0.6965490E-01 -0.8306423E+00 -0.1116540E-07  0.8736052E-07  0.2175991E+00 -0.2591870E+01
  0.5700000E+00  0.6965490E-01 -0.7883009E+00 -0.1116540E-07  0.9059261E-07  0.2175991E+00 -0.2459831E+01
  0.5800000E+00  0.6965490E-01 -0.7148881E+00 -0.1116540E-07  0.9152855E-07  0.2175991E+00 -0.2230823E+01
  0.5900000E+00  0.6965490E-01 -0.6150458E+00 -0.1116540E-07  0.9015767E-07  0.2175991E+00 -0.1919330E+01
  0.6000000E+00  0.6965490E-01 -0.4941929E+00 -0.1116540E-07  0.8656671E-07  0.2175991E+00 -0.1542262E+01
  0.6100000E+00  0.6965490E-01 -0.3582956E+00 -0.1116540E-07  0.8093599E-07  0.2175991E+00 -0.1118236E+01
  0.6200000E+00  0.6965490E-01 -0.2136301E+00 -0.1116540E-07  0.7353280E-07  0.2175991E+00 -0.6668365E+00
  0.6300000E+00  0.6965490E-01 -0.6653174E-01 -0.1116540E-07  0.6470118E-07  0.2175991E+00 -0.2078346E+00
  0.6400000E+00  0.6965490E-01  0.7683954E-01 -0.1116540E-07  0.5484940E-07  0.2175991E+00  0.2395487E+00
  0.6500000E+00  0.6965490E-01  0.2107248E+00 -0.1116540E-07  0.4443594E-07  0.2175991E+00  0.6573397E+00
  0.6600000E+00  0.6965490E-01  0.3299671E+00 -0.1116540E-07  0.3395186E-07  0.2175991E+00  0.1029445E+01
  0.6700000E+00  0.6965490E-01  0.4301856E+00 -0.1116540E-07  0.2390328E-07  0.2175991E+00  0.1342193E+01
  0.6800000E+00  0.6965490E-01  0.5079153E+00 -0.1116540E-07  0.1479346E-07  0.2175991E+00  0.1584770E+01
  0.6900000E+00  0.6965490E-01  0.5607037E+00 -0.1116540E-07  0.7103075E-08  0.2175991E+00  0.1749522E+01
  0.7000000E+00  0.6965490E-01  0.5871763E+00 -0.1116540E-07  0.1273431E-08  0.2175991E+00  0.1832157E+01
  0.7100000E+00  0.6965490E-01  0.5870477E+00 -0.1116540E-07 -0.2311593E-08  0.2175991E+00  0.1831782E+01
  0.7200000E+00  0.6965490E-01  0.5611016E+00 -0.1116540E-07 -0.3339598E-08  0.2175991E+00  0.1750844E+01
  0.7300000E+00  0.6965490E-01  0.5111237E+00 -0.1116540E-07 -0.1583196E-08  0.2175991E+00  0.1594912E+01
  0.7400000E+00  0.6965490E-01  0.4398035E+00 -0.1116540E-07  0.3090565E-08  0.2175991E+00  0.1372379E+01
  0.7500000E+00  0.6965490E-01  0.3506048E+00 -0.1116540E-07  0.1071215E-07  0.2175991E+00  0.1094051E+01
  0.7600000E+00  0.6965490E-01  0.2476040E+00 -0.1116540E-07  0.2120731E-07  0.2175991E+00  0.7726508E+00
  0.7700000E+00  0.6965490E-01  0.1353189E+00 -0.1116540E-07  0.3439562E-07  0.2175991E+00  0.4222738E+00
  0.7800000E+00  0.6965490E-01  0.1851825E-01 -0.1116540E-07  0.4999471E-07  0.2175991E+00  0.5780119E-01
  0.7900000E+00  0.6965490E-01 -0.9797066E-01 -0.1116540E-07  0.6762684E-07  0.2175991E+00 -0.3057024E+00
  0.8000000E+00  0.6965490E-01 -0.2094502E+00 -0.1116540E-07  0.8682910E-07  0.2175991E+00 -0.6535791E+00
  0.8100000E+00  0.6965490E-01 -0.3115338E+00 -0.1116540E-07  0.1070667E-06  0.2175991E+00 -0.9721380E+00
  0.8200000E+00  0.6965490E-01 -0.4003062E+00 -0.1116540E-07  0.1277481E-06  0.2175991E+00 -0.1249164E+01
  0.8300000E+00  0.6965490E-01 -0.4724683E+00 -0.1116540E-07  0.1482439E-06  0.2175991E+00 -0.1474359E+01
  0.8400000E+00  0.6965490E-01 -0.5254489E+00 -0.1116540E-07  0.1679060E-06  0.2175991E+00 -0.1639698E+01
  0.8500000E+00  0.6965490E-01 -0.5574875E+00 -0.1116540E-07  0.1860868E-06  0.2175991E+00 -0.1739690E+01
  0.8600000E+00  0.6965490E-01 -0.5676854E+00 -0.1116540E-07  0.2021614E-06  0.2175991E+00 -0.1771527E+01
  0.8700000E+00  0.6965490E-01 -0.5560196E+00 -0.1116540E-07  0.2155469E-06  0.2175991E+00 -0.1735137E+01
  0.8800000E+00  0.6965490E-01 -0.5233260E+00 -0.1116540E-07  0.2257214E-06  0.2175991E+00 -0.1633128E+01
  0.8900000E+00  0.6965490E-01 -0.4712473E+00 -0.1116540E-07  0.2322423E-06  0.2175991E+00 -0.1470626E+01
  0.9000000E+00  0.6965490E-01 -0.4021514E+00 -0.1116540E-07  0.2347605E-06  0.2175991E+00 -0.1255017E+01
  0.9100000E+00  0.6965490E-01 -0.3190230E+00 -0.1116540E-07  0.2330336E-06  0.2175991E+00 -0.9956188E+00
  0.9200000E+00  0.6965490E-01 -0.2253377E+00 -0.1116540E-07  0.2269350E-06  0.2175991E+00 -0.7032735E+00
  0.9300000E+00  0.6965490E-01 -0.1249145E+00 -0.1116540E-07  0.2164588E-06  0.2175991E+00 -0.3898984E+00
  0.9400000E+00  0.6965490E-01 -0.2175891E-01 -0.1116540E-07  0.2017235E-06  0.2175991E+00 -0.6799493E-01
  0.9500000E+00  0.6965490E-01  0.8009300E-01 -0.1116540E-07  0.1829677E-06  0.2175991E+00  0.2498436E+00
  0.9600000E+00  0.6965490E-01  0.1767349E+00 -0.1116540E-07  0.1605468E-06  0.2175991E+00  0.5514269E+00
  0.9700000E+00  0.6965490E-01  0.2645368E+00 -0.1116540E-07  0.1349223E-06  0.2175991E+00  0.8254280E+00
  0.9800000E+00  0.6965490E-01  0.3402831E+00 -0.1116540E-07  0.1066496E-06  0.2175991E+00  0.1061811E+01
  0.9899999E+00  0.6965490E-01  0.4012879E+00 -0.1116540E-07  0.7636195E-07  0.2175991E+00  0.1252194E+01
  0.1000000E+01  0.6965490E-01  0.4454887E+00 -0.1116540E-07  0.4475252E-07  0.2175991E+00  0.1390141E+01
  0.1010000E+01  0.6965490E-01  0.4715144E+00 -0.1116540E-07  0.1255530E-07  0.2175991E+00  0.1471371E+01
  0.1020000E+01  0.6965490E-01  0.4787268E+00 -0.1116540E-07 -0.1947823E-07  0.2175991E+00  0.1493895E+01
  0.1030000E+01  0.6965490E-01  0.4672299E+00 -0.1116540E-07 -0.5059964E-07  0.2175991E+00  0.1458034E+01
  0.1040000E+01  0.6965490E-01  0.4378509E+00 -0.1116540E-07 -0.8008595E-07  0.2175991E+00  0.1366371E+01
  0.1050000E+01  0.6965490E-01  0.3920983E+00 -0.1116540E-07 -0.1072612E-06  0.2175991E+00  0.1223611E+01
  0.1060000E+01  0.6965490E-01  0.3320849E+00 -0.1116540E-07 -0.1315153E-06  0.2175991E+00  0.1036349E+01
  0.1070000E+01  0.6965490E-01  0.2604396E+00 -0.1116540E-07 -0.1523226E-06  0.2175991E+00  0.8127851E+00
  0.1080000E+01  0.6965490E-01  0.1801930E+00 -0.1116540E-07 -0.1692568E-06  0.2175991E+00  0.5623784E+00
  0.1090000E+01  0.6965490E-01  0.9464984E-01 -0.1116540E-07 -0.1820023E-06  0.2175991E+00  0.2954410E+00
  0.1100000E+01  0.6965490E-01  0.7264048E-02 -0.1116540E-07 -0.1903633E-06  0.2175991E+00  0.2275026E-01
  0.1110000E+01  0.6965490E-01 -0.7850797E-01 -0.1116540E-07 -0.1942688E-06  0.2175991E+00 -0.2449070E+00
  0.1120000E+01  0.6965490E-01 -0.1593383E+00 -0.1116540E-07 -0.1937732E-06  0.2175991E+00 -0.4971465E+00
  0.1130000E+01  0.6965490E-01 -0.2321529E+00 -0.1116540E-07 -0.1890528E-06  0.2175991E+00 -0.7243745E+00
  0.1140000E+01  0.6965490E-01 -0.2942485E+00 -0.1116540E-07 -0.1803993E-06  0.2175991E+00 -0.9181550E+00
  0.1150000E+01  0.6965490E-01 -0.3433918E+00 -0.1116540E-07 -0.1682109E-06  0.2175991E+00 -0.1071520E+01
  0.1160000E+01  0.6965490E-01 -0.3778963E+00 -0.1116540E-07 -0.1529767E-06  0.2175991E+00 -0.1179204E+01
  0.1170000E+01  0.6965490E-01 -0.3966799E+00 -0.1116540E-07 -0.1352611E-06  0.2175991E+00 -0.1237832E+01
  0.1180000E+01  0.6965490E-01 -0.3992955E+00 -0.1116540E-07 -0.1156862E-06  0.2175991E+00 -0.1246006E+01
  0.1190000E+01  0.6965490E-01 -0.3859393E+00 -0.1116540E-07 -0.9491066E-07  0.2175991E+00 -0.1204340E+01
  0.1200000E+01  0.6965490E-01 -0.3574287E+00 -0.1116540E-07 -0.7360925E-07  0.2175991E+00 -0.1115384E+01
  0.1210000E+01  0.6965490E-01 -0.3151625E+00 -0.1116540E-07 -0.5245142E-07  0.2175991E+00 -0.9835009E+00
  0.1220000E+01  0.6965490E-01 -0.2610546E+00 -0.1116540E-07 -0.3208059E-07  0.2175991E+00 -0.8146642E+00
  0.1230000E+01  0.6965490E-01 -0.1974521E+00 -0.1116540E-07 -0.1309451E-07  0.2175991E+00 -0.6161969E+00
  0.1240000E+01  0.6965490E-01 -0.1270363E+00 -0.1116540E-07  0.3973919E-08  0.2175991E+00 -0.3964671E+00
  0.1250000E+01  0.6965490E-01 -0.5270728E-01 -0.1116540E-07  0.1866988E-07  0.2175991E+00 -0.1645240E+00
  0.1260000E+01  0.6965490E-01  0.2252723E-01 -0.1116540E-07  0.3063202E-07  0.2175991E+00  0.7024720E-01
  0.1270000E+01  0.6965490E-01  0.9567211E-01 -0.1116540E-07  0.3960090E-07  0.2175991E+00  0.2984999E+00
  0.1280000E+01  0.6965490E-01  0.1638670E+00 -0.1116540E-07  0.4542500E-07  0.2175991E+00  0.5113077E+00
  0.1290000E+01  0.6965490E-01  0.2244906E+00 -0.1116540E-07  0.4806424E-07  0.2175991E+00  0.7004906E+00
  0.1300000E+01  0.6965490E-01  0.2752624E+00 -0.1116540E-07  0.4758764E-07  0.2175991E+00  0.8589326E+00
  0.1310000E+01  0.6965490E-01  0.3143269E+00 -0.1116540E-07  0.4416972E-07  0.2175991E+00  0.9808423E+00
  0.1320000E+01  0.6965490E-01  0.3403180E+00 -0.1116540E-07  0.3808121E-07  0.2175991E+00  0.1061957E+01
  0.1330000E+01  0.6965490E-01  0.3524072E+00 -0.1116540E-07  0.2967850E-07  0.2175991E+00  0.1099690E+01
  0.1340000E+01  0.6965490E-01  0.3503256E+00 -0.1116540E-07  0.1938964E-07  0.2175991E+00  0.1093204E+01
  0.1350000E+01  0.6965490E-01  0.3343680E+00 -0.1116540E-07  0.7697334E-08  0.2175991E+00  0.1043416E+01
  0.1360000E+01  0.6965490E-01  0.3053711E+00 -0.1116540E-07 -0.4878256E-08  0.2175991E+00  0.9529385E+00
  0.1370000E+01  0.6965490E-01  0.2646732E+00 -0.1116540E-07 -0.1779789E-07  0.2175991E+00  0.8259463E+00
  0.1380000E+01  0.6965490E-01  0.2140553E+00 -0.1116540E-07 -0.3052400E-07  0.2175991E+00  0.6679974E+00
  0.1390000E+01  0.6965490E-01  0.1556614E+00 -0.1116540E-07 -0.4253886E-07  0.2175991E+00  0.4857818E+00
  0.1400000E+01  0.6965490E-01  0.9191114E-01 -0.1116540E-07 -0.5336225E-07  0.2175991E+00  0.2868500E+00
  0.1410000E+01  0.6965490E-01  0.2540155E-01 -0.1116540E-07 -0.6256783E-07  0.2175991E+00  0.7930565E-01
  0.1420000E+01  0.6965490E-01 -0.4119923E-01 -0.1116540E-07 -0.6979887E-07  0.2175991E+00 -0.1285246E+00
  0.1430000E+01  0.6965490E-01 -0.1052573E+00 -0.1116540E-07 -0.7477971E-07  0.2175991E+00 -0.3284213E+00
  0.1440000E+01  0.6965490E-01 -0.1642778E+00 -0.1116540E-07 -0.7732319E-07  0.2175991E+00 -0.5126002E+00
  0.1450000E+01  0.6965490E-01 -0.2159969E+00 -0.1116540E-07 -0.7733841E-07  0.2175991E+00 -0.6739963E+00
  0.1460000E+01  0.6965490E-01 -0.2584723E+00 -0.1116540E-07 -0.7483179E-07  0.2175991E+00 -0.8065479E+00
  0.1470000E+01  0.6965490E-01 -0.2901527E+00 -0.1116540E-07 -0.6990711E-07  0.2175991E+00 -0.9054143E+00
  0.1480000E+01  0.6965490E-01 -0.3099322E+00 -0.1116540E-07 -0.6275976E-07  0.2175991E+00 -0.9671439E+00
  0.1490000E+01  0.6965490E-01 -0.3171912E+00 -0.1116540E-07 -0.5367068E-07  0.2175991E+00 -0.9898035E+00
  0.1500000E+01  0.6965490E-01 -0.3118114E+00 -0.1116540E-07 -0.4299370E-07  0.2175991E+00 -0.9730235E+00
  0.1510000E+01  0.6965490E-01 -0.2941746E+00 -0.1116540E-07 -0.3114471E-07  0.2175991E+00 -0.9179941E+00
  0.1520000E+01  0.6965490E-01 -0.2651405E+00 -0.1116540E-07 -0.1858532E-07  0.2175991E+00 -0.8273988E+00
  0.1530000E+01  0.6965490E-01 -0.2260078E+00 -0.1116540E-07 -0.5805836E-08  0.2175991E+00 -0.7052900E+00
  0.1540000E+01  0.6965490E-01 -0.1784544E+00 -0.1116540E-07  0.6691265E-08  0.2175991E+00 -0.5569026E+00
  0.1550000E+01  0.6965490E-01 -0.1244713E+00 -0.1116540E-07  0.1841053E-07  0.2175991E+00 -0.3884501E+00
  0.1560000E+01  0.6965490E-01 -0.6627367E-01 -0.1116540E-07  0.2887952E-07  0.2175991E+00 -0.2068445E+00
  0.1570000E+01  0.6965490E-01 -0.6216800E-02 -0.1116540E-07  0.3766768E-07  0.2175991E+00 -0.1943549E-01
  0.1580000E+01  0.6965490E-01  0.5330347E-01 -0.1116540E-07  0.4440068E-07  0.2175991E+00  0.1662998E+00
  0.1590000E+01  0.6965490E-01  0.1099416E+00 -0.1116540E-07  0.4877363E-07  0.2175991E+00  0.3430428E+00
  0.1600000E+01  0.6965490E-01  0.1614963E+00 -0.1116540E-07  0.5056260E-07  0.2175991E+00  0.5039244E+00
  0.1610000E+01  0.6965490E-01  0.2059962E+00 -0.1116540E-07  0.4963311E-07  0.2175991E+00  0.6427916E+00
  0.1620000E+01  0.6965490E-01  0.2417699E+00 -0.1116540E-07  0.4594481E-07  0.2175991E+00  0.7544301E+00
  0.1630000E+01  0.6965490E-01  0.2675151E+00 -0.1116540E-07  0.3955327E-07  0.2175991E+00  0.8347746E+00
  0.1640000E+01  0.6965490E-01  0.2823403E+00 -0.1116540E-07  0.3061034E-07  0.2175991E+00  0.8810436E+00
  0.1650000E+01  0.6965490E-01  0.2857944E+00 -0.1116540E-07  0.1935780E-07  0.2175991E+00  0.8918293E+00
  0.1660000E+01  0.6965490E-01  0.2778845E+00 -0.1116540E-07  0.6121041E-08  0.2175991E+00  0.8671525E+00
  0.1670000E+01  0.6965490E-01  0.2590624E+00 -0.1116540E-07 -0.8701363E-08  0.2175991E+00  0.8084238E+00
  0.1680000E+01  0.6965490E-01  0.2302072E+00 -0.1116540E-07 -0.2465045E-07  0.2175991E+00  0.7183857E+00
  0.1690000E+01  0.6965490E-01  0.1925836E+00 -0.1116540E-07 -0.4122159E-07  0.2175991E+00  0.6009851E+00
  0.1700000E+01  0.6965490E-01  0.1477860E+00 -0.1116540E-07 -0.5788075E-07  0.2175991E+00  0.4611965E+00
  0.1710000E+01  0.6965490E-01  0.9767419E-01 -0.1116540E-07 -0.7408147E-07  0.2175991E+00  0.3048242E+00
  0.1720000E+01  0.6965490E-01  0.4429464E-01 -0.1116540E-07 -0.8928228E-07  0.2175991E+00  0.1382536E+00
  0.1730000E+01  0.6965490E-01 -0.1020286E-01 -0.1116540E-07 -0.1029654E-06  0.2175991E+00 -0.3180680E-01
  0.1740000E+01  0.6965490E-01 -0.6364620E-01 -0.1116540E-07 -0.1146512E-06  0.2175991E+00 -0.1985787E+00
  0.1750000E+01  0.6965490E-01 -0.1139328E+00 -0.1116540E-07 -0.1239168E-06  0.2175991E+00 -0.3555017E+00
  0.1760000E+01  0.6965490E-01 -0.1591105E+00 -0.1116540E-07 -0.1304067E-06  0.2175991E+00 -0.4964827E+00
  0.1770000E+01  0.6965490E-01 -0.1974502E+00 -0.1116540E-07 -0.1338463E-06  0.2175991E+00 -0.6161267E+00
  0.1780000E+01  0.6965490E-01 -0.2275139E+00 -0.1116540E-07 -0.1340501E-06  0.2175991E+00 -0.7099457E+00
  0.1790000E+01  0.6965490E-01 -0.2482064E+00 -0.1116540E-07 -0.1309289E-06  0.2175991E+00 -0.7745224E+00
  0.1800000E+01  0.6965490E-01 -0.2588171E+00 -0.1116540E-07 -0.1244921E-06  0.2175991E+00 -0.8076389E+00
  0.1810000E+01  0.6965490E-01 -0.2590405E+00 -0.1116540E-07 -0.1148481E-06  0.2175991E+00 -0.8083417E+00
  0.1820000E+01  0.6965490E-01 -0.2489854E+00 -0.1116540E-07 -0.1022020E-06  0.2175991E+00 -0.7769698E+00
  0.1830000E+01  0.6965490E-01 -0.2291661E+00 -0.1116540E-07 -0.8684907E-07  0.2175991E+00 -0.7151282E+00
  0.1840000E+01  0.6965490E-01 -0.2004774E+00 -0.1116540E-07 -0.6916670E-07  0.2175991E+00 -0.6256089E+00
  0.1850000E+01  0.6965490E-01 -0.1641552E+00 -0.1116540E-07 -0.4960439E-07  0.2175991E+00 -0.5122687E+00
  0.1860000E+01  0.6965490E-01 -0.1217225E+00 -0.1116540E-07 -0.2866849E-07  0.2175991E+00 -0.3798598E+00
  0.1870000E+01  0.6965490E-01 -0.7492582E-01 -0.1116540E-07 -0.6910598E-08  0.2175991E+00 -0.2338324E+00
  0.1880000E+01  0.6965490E-01 -0.2566818E-01 -0.1116540E-07  0.1509097E-07  0.2175991E+00 -0.8012390E-01
  0.1890000E+01  0.6965490E-01  0.2407261E-01 -0.1116540E-07  0.3674604E-07  0.2175991E+00  0.7509320E-01
  0.1900000E+01  0.6965490E-01  0.7232106E-01 -0.1116540E-07  0.5747054E-07  0.2175991E+00  0.2256542E+00
  0.1910000E+01  0.6965490E-01  0.1171826E+00 -0.1116540E-07  0.7670069E-07  0.2175991E+00  0.3656470E+00
  0.1920000E+01  0.6965490E-01  0.1569156E+00 -0.1116540E-07  0.9391125E-07  0.2175991E+00  0.4896377E+00
  0.1930000E+01  0.6965490E-01  0.1900018E+00 -0.1116540E-07  0.1086286E-06  0.2175991E+00  0.5928872E+00
  0.1940000E+01  0.6965490E-01  0.2152007E+00 -0.1116540E-07  0.1204420E-06  0.2175991E+00  0.6715245E+00
  0.1950000E+01  0.6965490E-01  0.2315971E+00 -0.1116540E-07  0.1290164E-06  0.2175991E+00  0.7226944E+00
  0.1960000E+01  0.6965490E-01  0.2386351E+00 -0.1116540E-07  0.1341011E-06  0.2175991E+00  0.7446610E+00
  0.1970000E+01  0.6965490E-01  0.2361329E+00 -0.1116540E-07  0.1355321E-06  0.2175991E+00  0.7368577E+00
  0.1980000E+01  0.6965490E-01  0.2242895E+00 -0.1116540E-07  0.1332400E-06  0.2175991E+00  0.6999047E+00
  0.1990000E+01  0.6965490E-01  0.2036723E+00 -0.1116540E-07  0.1272472E-06  0.2175991E+00  0.6355726E+00
  0.2000000E+01  0.6965490E-01  0.1751859E+00 -0.1116540E-07  0.1176678E-06  0.2175991E+00  0.5466839E+00
  0.2010000E+01  0.6965490E-01  0.1400418E+00 -0.1116540E-07  0.1047025E-06  0.2175991E+00  0.4370196E+00
  0.2020000E+01  0.6965490E-01  0.9970178E-01 -0.1116540E-07  0.8863203E-07  0.2175991E+00  0.3111400E+00
  0.2030000E+01  0.6965490E-01  0.5581583E-01 -0.1116540E-07  0.6980880E-07  0.2175991E+00  0.1741949E+00
  0.2040000E+01  0.6965490E-01  0.1015910E-01 -0.1116540E-07  0.4864603E-07  0.2175991E+00  0.3172338E-01
  0.2050000E+01  0.6965490E-01 -0.3544054E-01 -0.1116540E-07  0.2560586E-07  0.2175991E+00 -0.1105712E+00
  0.2060000E+01  0.6965490E-01 -0.7917737E-01 -0.1116540E-07  0.1187662E-08  0.2175991E+00 -0.2470534E+00
  0.2070000E+01  0.6965490E-01 -0.1193359E+00 -0.1116540E-07 -0.2408615E-07  0.2175991E+00 -0.3723702E+00
  0.2080000E+01  0.6965490E-01 -0.1543609E+00 -0.1116540E-07 -0.4968361E-07  0.2175991E+00 -0.4816688E+00
  0.2090000E+01  0.6965490E-01 -0.1829151E+00 -0.1116540E-07 -0.7507663E-07  0.2175991E+00 -0.5707756E+00
  0.2100000E+01  0.6965490E-01 -0.2039293E+00 -0.1116540E-07 -0.9975313E-07  0.2175991E+00 -0.6363540E+00
  0.2110000E+01  0.6965490E-01 -0.2166461E+00 -0.1116540E-07 -0.1232288E-06  0.2175991E+00 -0.6760406E+00
  0.2120000E+01  0.6965490E-01 -0.2206412E+00 -0.1116540E-07 -0.1450593E-06  0.2175991E+00 -0.6885114E+00
  0.2130000E+01  0.6965490E-01 -0.2158416E+00 -0.1116540E-07 -0.1648472E-06  0.2175991E+00 -0.6735384E+00
  0.2140000E+01  0.6965490E-01 -0.2025238E+00 -0.1116540E-07 -0.1822504E-06  0.2175991E+00 -0.6319834E+00
  0.2150000E+01  0.6965490E-01 -0.1812956E+00 -0.1116540E-07 -0.1969889E-06  0.2175991E+00 -0.5657440E+00
  0.2160000E+01  0.6965490E-01 -0.1530755E+00 -0.1116540E-07 -0.2088474E-06  0.2175991E+00 -0.4776857E+00
  0.2170000E+01  0.6965490E-01 -0.1190508E+00 -0.1116540E-07 -0.2176773E-06  0.2175991E+00 -0.3715138E+00
  0.2180000E+01  0.6965490E-01 -0.8062200E-01 -0.1116540E-07 -0.2233977E-06  0.2175991E+00 -0.2515981E+00
  0.2190000E+01  0.6965490E-01 -0.3935777E-01 -0.1116540E-07 -0.2259926E-06  0.2175991E+00 -0.1228338E+00
  0.2200000E+01  0.6965490E-01  0.3080899E-02 -0.1116540E-07 -0.2255100E-06  0.2175991E+00  0.9595580E-02
  0.2210000E+01  0.6965490E-01  0.4499904E-01 -0.1116540E-07 -0.2220534E-06  0.2175991E+00  0.1404019E+00
  0.2220000E+01  0.6965490E-01  0.8474153E-01 -0.1116540E-07 -0.2157813E-06  0.2175991E+00  0.2644196E+00
  0.2230000E+01  0.6965490E-01  0.1207514E+00 -0.1116540E-07 -0.2068943E-06  0.2175991E+00  0.3767905E+00
  0.2240000E+01  0.6965490E-01  0.1516347E+00 -0.1116540E-07 -0.1956329E-06  0.2175991E+00  0.4731641E+00
  0.2250000E+01  0.6965490E-01  0.1762154E+00 -0.1116540E-07 -0.1822667E-06  0.2175991E+00  0.5498709E+00
  0.2260000E+01  0.6965490E-01  0.1935768E+00 -0.1116540E-07 -0.1670868E-06  0.2175991E+00  0.6040499E+00
  0.2270000E+01  0.6965490E-01  0.2030954E+00 -0.1116540E-07 -0.1503976E-06  0.2175991E+00  0.6337559E+00
  0.2280000E+01  0.6965490E-01  0.2044664E+00 -0.1116540E-07 -0.1325105E-06  0.2175991E+00  0.6380375E+00
  0.2290000E+01  0.6965490E-01  0.1977079E+00 -0.1116540E-07 -0.1137330E-06  0.2175991E+00  0.6169505E+00
  0.2300000E+01  0.6965490E-01  0.1831614E+00 -0.1116540E-07 -0.9436570E-07  0.2175991E+00  0.5715610E+00
  0.2310000E+01  0.6965490E-01  0.1614765E+00 -0.1116540E-07 -0.7469494E-07  0.2175991E+00  0.5038961E+00
  0.2320000E+01  0.6965490E-01  0.1335752E+00 -0.1116540E-07 -0.5498698E-07  0.2175991E+00  0.4168324E+00
  0.2330000E+01  0.6965490E-01  0.1006174E+00 -0.1116540E-07 -0.3548485E-07  0.2175991E+00  0.3139888E+00
  0.2340000E+01  0.6965490E-01  0.6395824E-01 -0.1116540E-07 -0.1640616E-07  0.2175991E+00  0.1995952E+00
  0.2350000E+01  0.6965490E-01  0.2508334E-01 -0.1116540E-07  0.2061469E-08  0.2175991E+00  0.7828641E-01
  0.2360000E+01  0.6965490E-01 -0.1444608E-01 -0.1116540E-07  0.1975879E-07  0.2175991E+00 -0.4506502E-01
  0.2370000E+01  0.6965490E-01 -0.5305672E-01 -0.1116540E-07  0.3655599E-07  0.2175991E+00 -0.1655499E+00
  0.2380000E+01  0.6965490E-01 -0.8922466E-01 -0.1116540E-07  0.5235288E-07  0.2175991E+00 -0.2784130E+00
  0.2390000E+01  0.6965490E-01 -0.1215379E+00 -0.1116540E-07  0.6707640E-07  0.2175991E+00 -0.3792480E+00
  0.2400000E+01  0.6965490E-01 -0.1487470E+00 -0.1116540E-07  0.8067889E-07  0.2175991E+00 -0.4641560E+00
  0.2410000E+01  0.6965490E-01 -0.1698170E+00 -0.1116540E-07  0.9313578E-07  0.2175991E+00 -0.5299069E+00
  0.2420000E+01  0.6965490E-01 -0.1839661E+00 -0.1116540E-07  0.1044422E-06  0.2175991E+00 -0.5740618E+00
  0.2430000E+01  0.6965490E-01 -0.1906924E+00 -0.1116540E-07  0.1146105E-06  0.2175991E+00 -0.5950533E+00
  0.2440000E+01  0.6965490E-01 -0.1897903E+00 -0.1116540E-07  0.1236689E-06  0.2175991E+00 -0.5922408E+00
  0.2450000E+01  0.6965490E-01 -0.1813631E+00 -0.1116540E-07  0.1316525E-06  0.2175991E+00 -0.5659465E+00
  0.2460000E+01  0.6965490E-01 -0.1658101E+00 -0.1116540E-07  0.1386089E-06  0.2175991E+00 -0.5174154E+00
  0.2470000E+01  0.6965490E-01 -0.1438035E+00 -0.1116540E-07  0.1445875E-06  0.2175991E+00 -0.4487454E+00
  0.2480000E+01  0.6965490E-01 -0.1162748E+00 -0.1116540E-07  0.1496420E-06  0.2175991E+00 -0.3628436E+00
  0.2490000E+01  0.6965490E-01 -0.8436196E-01 -0.1116540E-07  0.1538270E-06  0.2175991E+00 -0.2632609E+00
  0.2500000E+01  0.6965490E-01 -0.4936730E-01 -0.1116540E-07  0.1571953E-06  0.2175991E+00 -0.1540609E+00
  0.2510000E+01  0.6965490E-01 -0.1270385E-01 -0.1116540E-07  0.1597974E-06  0.2175991E+00 -0.3965259E-01
  0.2520000E+01  0.6965490E-01  0.2415936E-01 -0.1116540E-07  0.1616817E-06  0.2175991E+00  0.7537916E-01
  0.2530000E+01  0.6965490E-01  0.5975825E-01 -0.1116540E-07  0.1628908E-06  0.2175991E+00  0.1864660E+00
  0.2540000E+01  0.6965490E-01  0.9269121E-01 -0.1116540E-07  0.1634650E-06  0.2175991E+00  0.2892341E+00
  0.2550000E+01  0.6965490E-01  0.1216725E+00 -0.1116540E-07  0.1634392E-06  0.2175991E+00  0.3796715E+00
  0.2560000E+01  0.6965490E-01  0.1455877E+00 -0.1116540E-07  0.1628459E-06  0.2175991E+00  0.4543005E+00
  0.2570000E+01  0.6965490E-01  0.1635268E+00 -0.1116540E-07  0.1617138E-06  0.2175991E+00  0.5102813E+00
  0.2580000E+01  0.6965490E-01  0.1748275E+00 -0.1116540E-07  0.1600689E-06  0.2175991E+00  0.5455467E+00
  0.2590000E+01  0.6965490E-01  0.1790958E+00 -0.1116540E-07  0.1579361E-06  0.2175991E+00  0.5588679E+00
  0.2600000E+01  0.6965490E-01  0.1762190E+00 -0.1116540E-07  0.1553391E-06  0.2175991E+00  0.5498927E+00
  0.2610000E+01  0.6965490E-01  0.1663686E+00 -0.1116540E-07  0.1523025E-06  0.2175991E+00  0.5191562E+00
  0.2620000E+01  0.6965490E-01  0.1499921E+00 -0.1116540E-07  0.1488505E-06  0.2175991E+00  0.4680550E+00
  0.2630000E+01  0.6965490E-01  0.1277910E+00 -0.1116540E-07  0.1450101E-06  0.2175991E+00  0.3987775E+00
  0.2640000E+01  0.6965490E-01  0.1006941E+00 -0.1116540E-07  0.1408100E-06  0.2175991E+00  0.3142228E+00
  0.2650000E+01  0.6965490E-01  0.6981398E-01 -0.1116540E-07  0.1362825E-06  0.2175991E+00  0.2178618E+00
  0.2660000E+01  0.6965490E-01  0.3640680E-01 -0.1116540E-07  0.1314611E-06  0.2175991E+00  0.1136151E+00
  0.2670000E+01  0.6965490E-01  0.1818604E-02 -0.1116540E-07  0.1263845E-06  0.2175991E+00  0.5682413E-02
  0.2680000E+01  0.6965490E-01 -0.3256916E-01 -0.1116540E-07  0.1210942E-06  0.2175991E+00 -0.1016248E+00
  0.2690000E+01  0.6965490E-01 -0.6539423E-01 -0.1116540E-07  0.1156354E-06  0.2175991E+00 -0.2040560E+00
  0.2700000E+01  0.6965490E-01 -0.9536377E-01 -0.1116540E-07  0.1100564E-06  0.2175991E+00 -0.2975770E+00
  0.2710000E+01  0.6965490E-01 -0.1213120E+00 -0.1116540E-07  0.1044084E-06  0.2175991E+00 -0.3785495E+00
  0.2720000E+01  0.6965490E-01 -0.1422406E+00 -0.1116540E-07  0.9874493E-07  0.2175991E+00 -0.4438586E+00
  0.2730000E+01  0.6965490E-01 -0.1573575E+00 -0.1116540E-07  0.9312124E-07  0.2175991E+00 -0.4910325E+00
  0.2740000E+01  0.6965490E-01 -0.1661077E+00 -0.1116540E-07  0.8759525E-07  0.2175991E+00 -0.5183390E+00
  0.2750000E+01  0.6965490E-01 -0.1681939E+00 -0.1116540E-07  0.8222428E-07  0.2175991E+00 -0.5248504E+00
  0.2760000E+01  0.6965490E-01 -0.1635831E+00 -0.1116540E-07  0.7706632E-07  0.2175991E+00 -0.5104638E+00
  0.2770000E+01  0.6965490E-01 -0.1525105E+00 -0.1116540E-07  0.7217774E-07  0.2175991E+00 -0.4759127E+00
  0.2780000E+01  0.6965490E-01 -0.1354650E+00 -0.1116540E-07  0.6761501E-07  0.2175991E+00 -0.4227235E+00