VARIABLES="w (rad/s)"
"A   1   1" "B   1   1"
"A   1   2" "B   1   2"
"A   1   3" "B   1   3"
Zone t="Motion of body    1 in DoF   1",I=   100,F=POINT
  0.1000000E+00  0.8868685E-01 -0.4346253E-13 -0.2284651E-07 -0.3104828E-12  0.2770215E+00 -0.1360898E-12
  0.3010101E+00  0.8506569E-01  0.1062532E-10  0.2552543E-07  0.1228489E-10  0.2657134E+00  0.3324805E-10
  0.5020202E+00  0.8485413E-01  0.4757075E-09  0.8116280E-09  0.3852580E-10  0.2650530E+00  0.1485300E-08
  0.7030303E+00  0.8505300E-01  0.5233024E-08 -0.1117738E-07 -0.7168986E-10  0.2656763E+00  0.1634248E-07
  0.9040404E+00  0.8518954E-01  0.3094628E-07 -0.2375848E-07 -0.6637893E-10  0.2661019E+00  0.9664338E-07
  0.1105051E+01  0.8509745E-01  0.1255417E-06  0.5688812E-08  0.3395222E-09  0.2658149E+00  0.3920414E-06
  0.1306061E+01  0.8495337E-01  0.4012910E-06 -0.2237280E-07 -0.6441359E-09  0.2653638E+00  0.1253167E-05
  0.1507071E+01  0.8544190E-01  0.1089856E-05 -0.1290009E-07 -0.4173906E-09  0.2668883E+00  0.3403438E-05
  0.1708081E+01  0.8524893E-01  0.2606901E-05  0.1649366E-07  0.5935430E-09  0.2662887E+00  0.8140909E-05
  0.1909091E+01  0.8570461E-01  0.5657556E-05  0.3042875E-07  0.4559322E-08  0.2677088E+00  0.1766753E-04
  0.2110101E+01  0.8554400E-01  0.1133654E-04  0.1379262E-07  0.1443340E-08  0.2672091E+00  0.3540192E-04
  0.2311111E+01  0.8599794E-01  0.2131949E-04  0.1440640E-07  0.3396394E-08  0.2686240E+00  0.6657650E-04
  0.2512121E+01  0.8598288E-01  0.3797176E-04 -0.5468291E-08 -0.7679546E-09  0.2685782E+00  0.1185781E-03
  0.2713131E+01  0.8614910E-01  0.6463984E-04  0.5011667E-07  0.1663363E-07  0.2690980E+00  0.2018565E-03
  0.2914141E+01  0.8657877E-01  0.1058557E-03 -0.1102576E-07 -0.7174265E-08  0.2704374E+00  0.3305632E-03
  0.3115151E+01  0.8676267E-01  0.1674916E-03 -0.4932931E-08 -0.7465360E-08  0.2710115E+00  0.5230358E-03
  0.3316161E+01  0.8691546E-01  0.2571979E-03 -0.5406239E-07 -0.3076525E-07  0.2714900E+00  0.8031650E-03
  0.3517171E+01  0.8730625E-01  0.3847535E-03  0.3203996E-07  0.1448734E-07  0.2727097E+00  0.1201485E-02
  0.3718182E+01  0.8770720E-01  0.5621755E-03 -0.2491629E-06 -0.2509591E-06  0.2739592E+00  0.1755516E-02
  0.3919192E+01  0.8800043E-01  0.8041078E-03 -0.3729623E-06 -0.4064368E-06  0.2748758E+00  0.2510995E-02
  0.4120202E+01  0.8825756E-01  0.1128233E-02 -0.6003007E-06 -0.7273420E-06  0.2756792E+00  0.3523130E-02
  0.4321212E+01  0.8869554E-01  0.1555740E-02  0.2975840E-06  0.4628309E-06  0.2770472E+00  0.4858077E-02
  0.4522222E+01  0.8921975E-01  0.2111445E-02  0.7373810E-06  0.1079839E-05  0.2786824E+00  0.6593326E-02
  0.4723232E+01  0.8973486E-01  0.2824035E-02 -0.1247158E-06 -0.1880762E-06  0.2802890E+00  0.8818450E-02
  0.4924242E+01  0.9015401E-01  0.3726329E-02 -0.4333917E-06 -0.9005944E-06  0.2815977E+00  0.1163593E-01
  0.5125252E+01  0.9059213E-01  0.4855050E-02  0.1171137E-06  0.3080750E-06  0.2829666E+00  0.1516043E-01
  0.5326262E+01  0.9113335E-01  0.6251158E-02 -0.1922529E-06 -0.4661815E-06  0.2846574E+00  0.1951982E-01
  0.5527273E+01  0.9176476E-01  0.7960634E-02 -0.6107975E-07 -0.1453882E-06  0.2866277E+00  0.2485768E-01
  0.5728283E+01  0.9241324E-01  0.1003410E-01  0.4105226E-07  0.1426597E-06  0.2886503E+00  0.3133200E-01
  0.5929293E+01  0.9309370E-01  0.1252625E-01  0.1946115E-06  0.4395915E-06  0.2907743E+00  0.3911359E-01
  0.6130303E+01  0.9369730E-01  0.1549685E-01 -0.2964741E-06 -0.9397481E-06  0.2926590E+00  0.4838909E-01
  0.6331313E+01  0.9429900E-01  0.1900150E-01  0.5648558E-07  0.1265580E-06  0.2945372E+00  0.5933196E-01
  0.6532323E+01  0.9489238E-01  0.2310329E-01 -0.3628443E-07 -0.6254413E-07  0.2963904E+00  0.7213934E-01
  0.6733334E+01  0.9557742E-01  0.2785428E-01  0.4412255E-07  0.3013993E-06  0.2985289E+00  0.8697356E-01
  0.6934343E+01  0.9630071E-01  0.3332341E-01  0.1839990E-07  0.1808512E-06  0.3007868E+00  0.1040499E+00
  0.7135354E+01  0.9700704E-01  0.3957484E-01 -0.5514566E-07 -0.3423193E-06  0.3029901E+00  0.1235686E+00
  0.7336363E+01  0.9769651E-01  0.4667189E-01 -0.1180599E-07 -0.2293382E-07  0.3051409E+00  0.1457273E+00
  0.7537374E+01  0.9833760E-01  0.5467497E-01  0.8525682E-08 -0.3277091E-07  0.3071417E+00  0.1707147E+00
  0.7738384E+01  0.9888341E-01  0.6364778E-01 -0.1456248E-07 -0.1264852E-06  0.3088456E+00  0.1987292E+00
  0.7939394E+01  0.9941176E-01  0.7359476E-01  0.5419444E-07  0.1215958E-06  0.3104949E+00  0.2297850E+00
  0.8140405E+01  0.9984411E-01  0.8457524E-01 -0.3472265E-07 -0.4832400E-06  0.3118445E+00  0.2640670E+00
  0.8341414E+01  0.1002499E+00  0.9656388E-01  0.1171213E-06  0.7447670E-06  0.3131109E+00  0.3014962E+00
  0.8542424E+01  0.1006218E+00  0.1095717E+00  0.5451161E-09 -0.2667657E-06  0.3142715E+00  0.3421071E+00
  0.8743435E+01  0.1008850E+00  0.1236472E+00 -0.2684223E-07 -0.1708977E-06  0.3150918E+00  0.3860502E+00
  0.8944445E+01  0.1010702E+00  0.1387486E+00 -0.2019986E-07 -0.2518063E-06  0.3156691E+00  0.4331960E+00
  0.9145455E+01  0.1011974E+00  0.1547933E+00 -0.2270909E-07 -0.2674060E-06  0.3160647E+00  0.4832864E+00
  0.9346465E+01  0.1012302E+00  0.1717569E+00  0.7274039E-08  0.1159497E-06  0.3161660E+00  0.5362450E+00
  0.9547475E+01  0.1011755E+00  0.1895653E+00 -0.1277859E-07 -0.2445886E-06  0.3159941E+00  0.5918391E+00
  0.9748485E+01  0.1010421E+00  0.2080990E+00  0.4461490E-07  0.2938323E-06  0.3155763E+00  0.6496971E+00
  0.9949495E+01  0.1008094E+00  0.2273297E+00  0.1104539E-07  0.2910383E-07  0.3148485E+00  0.7097305E+00
  0.1015051E+02  0.1004665E+00  0.2471344E+00  0.2082755E-07  0.4307367E-08  0.3137766E+00  0.7715541E+00
  0.1035151E+02  0.1000355E+00  0.2673811E+00  0.9806700E-08 -0.2082670E-06  0.3124297E+00  0.8347576E+00
  0.1055252E+02  0.9950722E-01  0.2880270E+00  0.5295356E-09 -0.2479646E-06  0.3107796E+00  0.8992047E+00
  0.1075354E+02  0.9888798E-01  0.3088671E+00 -0.1645517E-07 -0.2908055E-06  0.3088454E+00  0.9642580E+00
  0.1095455E+02  0.9817738E-01  0.3298369E+00  0.2380475E-08  0.1660082E-06  0.3066257E+00  0.1029714E+01
  0.1115556E+02  0.9738745E-01  0.3507996E+00 -0.1102003E-07 -0.2104789E-06  0.3041585E+00  0.1095147E+01
  0.1135657E+02  0.9652030E-01  0.3716942E+00  0.4920443E-08 -0.2195593E-06  0.3014498E+00  0.1160366E+01
  0.1155758E+02  0.9557916E-01  0.3924459E+00 -0.5963002E-08 -0.6223563E-06  0.2985108E+00  0.1225138E+01
  0.1175859E+02  0.9457070E-01  0.4128890E+00  0.9266820E-08  0.2619345E-06  0.2953614E+00  0.1288945E+01
  0.1195960E+02  0.9350952E-01  0.4328864E+00 -0.9811920E-08 -0.2444722E-07  0.2920480E+00  0.1351360E+01
  0.1216061E+02  0.9241043E-01  0.4523668E+00  0.8807296E-08  0.1112930E-06  0.2886164E+00  0.1412159E+01
  0.1236162E+02  0.9125639E-01  0.4714534E+00 -0.8664083E-08 -0.2181623E-06  0.2850129E+00  0.1471727E+01
  0.1256263E+02  0.9007043E-01  0.4899879E+00 -0.9489199E-08  0.8614734E-07  0.2813094E+00  0.1529570E+01
  0.1276364E+02  0.8886050E-01  0.5078391E+00  0.4378011E-09 -0.1227017E-06  0.2775314E+00  0.1585282E+01
  0.1296465E+02  0.8763341E-01  0.5249833E+00  0.1214021E-07 -0.1543667E-06  0.2737001E+00  0.1638784E+01
  0.1316566E+02  0.8638766E-01  0.5414689E+00  0.2723443E-07 -0.6728806E-07  0.2698105E+00  0.1690231E+01
  0.1336667E+02  0.8512752E-01  0.5573474E+00  0.2382885E-07  0.2642628E-06  0.2658762E+00  0.1739778E+01
  0.1356768E+02  0.8386525E-01  0.5724527E+00 -0.9472696E-08 -0.3352761E-06  0.2619352E+00  0.1786911E+01
  0.1376869E+02  0.8260375E-01  0.5868130E+00  0.1677487E-07  0.2207235E-06  0.2579966E+00  0.1831722E+01
  0.1396970E+02  0.8135048E-01  0.6004252E+00 -0.1006677E-07 -0.6053597E-08  0.2540839E+00  0.1874193E+01
  0.1417071E+02  0.8010440E-01  0.6133389E+00 -0.7689434E-08 -0.1485460E-06  0.2501936E+00  0.1914482E+01
  0.1437172E+02  0.7887311E-01  0.6255243E+00  0.1270128E-07 -0.2011657E-06  0.2463495E+00  0.1952502E+01
  0.1457273E+02  0.7765909E-01  0.6369656E+00 -0.3016485E-07 -0.4251488E-06  0.2425594E+00  0.1988193E+01
  0.1477374E+02  0.7646243E-01  0.6477174E+00 -0.2042465E-07  0.4936010E-07  0.2388236E+00  0.2021736E+01
  0.1497475E+02  0.7528732E-01  0.6577789E+00  0.4353501E-08  0.5459879E-06  0.2351553E+00  0.2053120E+01
  0.1517576E+02  0.7413632E-01  0.6670961E+00  0.7855244E-08 -0.6309710E-07  0.2315622E+00  0.2082184E+01
  0.1537677E+02  0.7300777E-01  0.6758175E+00  0.2259144E-07 -0.2961606E-06  0.2280391E+00  0.2109385E+01
  0.1557778E+02  0.7190172E-01  0.6839994E+00 -0.7772092E-09 -0.5890615E-07  0.2245864E+00  0.2134902E+01
  0.1577879E+02  0.7082271E-01  0.6915410E+00 -0.2962990E-07  0.1133885E-06  0.2212181E+00  0.2158421E+01
  0.1597980E+02  0.6977002E-01  0.6984756E+00 -0.1014094E-07 -0.1839362E-06  0.2179321E+00  0.2180041E+01
  0.1618081E+02  0.6874387E-01  0.7047872E+00 -0.2066304E-07  0.1760200E-06  0.2147289E+00  0.2199719E+01
  0.1638182E+02  0.6774372E-01  0.7106125E+00  0.2330890E-08 -0.3576279E-06  0.2116070E+00  0.2217876E+01
  0.1658283E+02  0.6677451E-01  0.7159848E+00 -0.3285469E-07 -0.7008202E-07  0.2085817E+00  0.2234622E+01
  0.1678384E+02  0.6583276E-01  0.7208228E+00  0.3440333E-08  0.2246816E-06  0.2056416E+00  0.2249703E+01
  0.1698485E+02  0.6491867E-01  0.7251788E+00 -0.2741627E-09 -0.5122274E-08  0.2027885E+00  0.2263277E+01
  0.1718586E+02  0.6403167E-01  0.7290820E+00 -0.7099049E-08 -0.5171169E-06  0.2000198E+00  0.2275435E+01
  0.1738687E+02  0.6317069E-01  0.7324923E+00 -0.5784988E-08 -0.2461020E-06  0.1973324E+00  0.2286060E+01
  0.1758788E+02  0.6233536E-01  0.7354429E+00 -0.1059050E-09 -0.9732321E-07  0.1947250E+00  0.2295246E+01
  0.1778889E+02  0.6152457E-01  0.7380583E+00  0.2094167E-09  0.1515727E-06  0.1921945E+00  0.2303388E+01
  0.1798990E+02  0.6074207E-01  0.7403002E+00 -0.1102684E-07 -0.1257285E-07  0.1897521E+00  0.2310364E+01
  0.1819091E+02  0.5998492E-01  0.7422013E+00 -0.9778653E-08 -0.2249144E-06  0.1873889E+00  0.2316275E+01
  0.1839192E+02  0.5924834E-01  0.7437650E+00 -0.2273628E-07 -0.1583248E-07  0.1850898E+00  0.2321128E+01
  0.1859293E+02  0.5853151E-01  0.7449359E+00  0.2239030E-07 -0.1827721E-06  0.1828523E+00  0.2324757E+01
  0.1879394E+02  0.5783609E-01  0.7458051E+00 -0.6788954E-08  0.2877787E-06  0.1806818E+00  0.2327443E+01
  0.1899495E+02  0.5716592E-01  0.7464421E+00  0.1465997E-07 -0.5983748E-07  0.1785899E+00  0.2329406E+01
  0.1919596E+02  0.5652168E-01  0.7466918E+00  0.2910996E-09 -0.1350418E-07  0.1765790E+00  0.2330163E+01
  0.1939697E+02  0.5589605E-01  0.7466163E+00 -0.8162349E-08  0.6146729E-07  0.1746263E+00  0.2329903E+01
  0.1959798E+02  0.5529072E-01  0.7461967E+00 -0.2518632E-08 -0.5029142E-07  0.1727367E+00  0.2328571E+01
  0.1979899E+02  0.5470322E-01  0.7454453E+00  0.2022672E-08  0.5937181E-07  0.1709028E+00  0.2326200E+01
  0.2000000E+02  0.5412625E-01  0.7443681E+00  0.6752089E-08  0.1434237E-06  0.1691020E+00  0.2322819E+01
Zone t="Motion of body    1 in DoF   2",I=   100,F=POINT
  0.1000000E+00 -0.1658918E-07  0.5027090E-12  0.1797230E+01  0.3631263E-04 -0.3783498E-07  0.1321609E-11
  0.3010101E+00  0.2484862E-07  0.1250555E-11  0.1778461E+01  0.9705187E-03  0.2900617E-07  0.3637979E-10
  0.5020202E+00 -0.1692824E-07 -0.1364242E-10  0.1785145E+01  0.4490020E-02 -0.7420599E-08 -0.1336957E-09
  0.7030303E+00 -0.1763542E-07 -0.1509761E-09  0.1796897E+01  0.1228065E-01 -0.3013752E-07 -0.6821210E-09
  0.9040404E+00 -0.2266392E-07  0.1127773E-09  0.1807838E+01  0.2596925E-01 -0.1648285E-07 -0.2146407E-09
  0.1105051E+01 -0.7374386E-09 -0.2619345E-09  0.1817721E+01  0.4709863E-01 -0.8006475E-08  0.1702574E-08
  0.1306061E+01  0.9983084E-08 -0.4001777E-10  0.1827060E+01  0.7710326E-01  0.3137540E-07 -0.4656613E-09
  0.1507071E+01  0.1900253E-07  0.1818989E-09  0.1839007E+01  0.1172794E+00 -0.1112343E-07 -0.3696186E-08
  0.1708081E+01  0.1921988E-07 -0.8512870E-09  0.1848128E+01  0.1687781E+00  0.4361960E-08 -0.7305061E-08
  0.1909091E+01  0.7805370E-08  0.2008164E-08  0.1857275E+01  0.2325621E+00  0.9903063E-07  0.6606570E-08
  0.2110101E+01  0.7723870E-09  0.3696186E-08  0.1863879E+01  0.3094186E+00 -0.2648184E-08 -0.7043127E-08
  0.2311111E+01  0.4473035E-07 -0.2211891E-08  0.1869842E+01  0.3999055E+00  0.7455058E-07  0.5238689E-09
  0.2512121E+01 -0.1343902E-07  0.5529728E-09  0.1873551E+01  0.5043889E+00  0.5560974E-07  0.1688022E-07
  0.2713131E+01  0.2823354E-07  0.8149073E-08  0.1875019E+01  0.6230144E+00  0.4599750E-07 -0.2910383E-08
  0.2914141E+01  0.3914945E-07 -0.6402843E-08  0.1875390E+01  0.7556609E+00  0.2013400E-07 -0.3096648E-07
  0.3115151E+01  0.3916448E-07 -0.6984919E-08  0.1872932E+01  0.9020917E+00  0.3946344E-07  0.1990702E-07
  0.3316161E+01 -0.2541635E-07 -0.2217712E-07  0.1868773E+01  0.1061748E+01 -0.4353076E-07 -0.3119931E-07
  0.3517171E+01 -0.2647931E-09 -0.6402843E-09  0.1861940E+01  0.1234067E+01  0.7149414E-07 -0.2095476E-08
  0.3718182E+01 -0.1059522E-06 -0.5529728E-08  0.1853021E+01  0.1418162E+01 -0.3271242E-06 -0.3725290E-07
  0.3919192E+01 -0.1196473E-06  0.6635673E-08  0.1842902E+01  0.1612849E+01 -0.3664274E-06 -0.3725290E-08
  0.4120202E+01 -0.1790222E-06 -0.1303852E-07  0.1830314E+01  0.1817268E+01 -0.5063253E-06  0.7823110E-07
  0.4321212E+01  0.1090549E-06  0.1792796E-07  0.1815123E+01  0.2030410E+01  0.3603552E-06 -0.1862645E-08
  0.4522222E+01  0.2647405E-06  0.3678724E-07  0.1799137E+01  0.2250519E+01  0.7376899E-06  0.9313226E-09
  0.4723232E+01 -0.7325203E-07 -0.2258457E-07  0.1780951E+01  0.2476792E+01 -0.1837709E-06 -0.1359731E-06
  0.4924242E+01 -0.1639758E-06 -0.4109461E-07  0.1761456E+01  0.2707624E+01 -0.5352383E-06 -0.1345761E-06
  0.5125252E+01  0.1390101E-07  0.2211891E-08  0.1741082E+01  0.2941469E+01  0.9449052E-07 -0.8288771E-07
  0.5326262E+01 -0.3838063E-07  0.2770685E-07  0.1718970E+01  0.3177789E+01 -0.1203001E-06  0.2309680E-06
  0.5527273E+01 -0.5088575E-07  0.3608875E-07  0.1695696E+01  0.3415213E+01 -0.1091853E-06 -0.1536682E-07
  0.5728283E+01  0.2869593E-07 -0.2351590E-07  0.1671679E+01  0.3652365E+01  0.1196612E-06 -0.1131557E-06
  0.5929293E+01  0.8387615E-07 -0.5215406E-07  0.1647226E+01  0.3887814E+01  0.2374920E-06  0.1252629E-06
  0.6130303E+01 -0.1457683E-06  0.5448237E-07  0.1622129E+01  0.4120865E+01 -0.4268984E-06  0.6053597E-07
  0.6331313E+01  0.1470979E-07 -0.1047738E-07  0.1596544E+01  0.4350717E+01  0.5324942E-07 -0.5215406E-07
  0.6532323E+01 -0.2281143E-08 -0.5238689E-07  0.1570591E+01  0.4576452E+01  0.1368686E-07 -0.1564622E-06
  0.6733334E+01  0.1659783E-08 -0.3376044E-07  0.1544268E+01  0.4797995E+01  0.7717989E-07  0.6891787E-07
  0.6934343E+01  0.5372233E-09 -0.5634502E-07  0.1518247E+01  0.5013352E+01  0.6876458E-07  0.1443550E-06
  0.7135354E+01 -0.9006036E-08  0.1513399E-07  0.1491992E+01  0.5223511E+01 -0.3236952E-07 -0.1294538E-06
  0.7336363E+01 -0.4087664E-07 -0.3026798E-08  0.1465963E+01  0.5426899E+01 -0.2843592E-07 -0.2086163E-06
  0.7537374E+01 -0.1420947E-07 -0.4749745E-07  0.1439998E+01  0.5623818E+01 -0.6301591E-07  0.2095476E-06
  0.7738384E+01  0.5897201E-08 -0.2374873E-07  0.1414520E+01  0.5812649E+01  0.6547097E-07  0.7636845E-07
  0.7939394E+01  0.1243422E-07  0.4656613E-08  0.1389623E+01  0.5992949E+01  0.9173172E-07 -0.1229346E-06
  0.8140405E+01 -0.3466544E-07 -0.3189780E-07  0.1364908E+01  0.6166179E+01 -0.1333990E-06 -0.2020970E-06
  0.8341414E+01  0.6888832E-07 -0.4656613E-07  0.1340528E+01  0.6332276E+01  0.2072232E-06 -0.2877787E-06
  0.8542424E+01  0.4077468E-07 -0.9313226E-08  0.1316663E+01  0.6490509E+01  0.1057525E-06 -0.3268942E-06
  0.8743435E+01 -0.3610919E-07  0.3725290E-08  0.1293389E+01  0.6640341E+01 -0.5453659E-07 -0.2700835E-07
  0.8944445E+01 -0.5414397E-08  0.1396984E-07  0.1270792E+01  0.6781181E+01 -0.2374005E-07 -0.2924353E-06
  0.9145455E+01 -0.6008233E-08 -0.2328306E-08  0.1248924E+01  0.6912467E+01 -0.2484761E-07 -0.8195639E-07
  0.9346465E+01  0.5978662E-08 -0.6286427E-07  0.1227466E+01  0.7037026E+01  0.3985774E-08 -0.2086163E-06
  0.9547475E+01  0.3999406E-08 -0.3771856E-07  0.1206532E+01  0.7154324E+01  0.5540640E-07 -0.2188608E-06
  0.9748485E+01  0.6209782E-08 -0.4237518E-07  0.1186227E+01  0.7264052E+01  0.2311950E-07  0.1927838E-06
  0.9949495E+01 -0.1216865E-07 -0.3725290E-08  0.1166541E+01  0.7365978E+01 -0.2096752E-07  0.1601875E-06
  0.1015051E+02 -0.5229825E-08  0.1443550E-06  0.1147392E+01  0.7461575E+01 -0.2403884E-07 -0.8009374E-07
  0.1035151E+02 -0.1385534E-07  0.1140870E-06  0.1128900E+01  0.7548965E+01 -0.2177267E-07  0.2142042E-07
  0.1055252E+02 -0.3380202E-07 -0.5215406E-07  0.1111020E+01  0.7628434E+01 -0.6072009E-07 -0.1993030E-06
  0.1075354E+02 -0.1108559E-07  0.2887100E-07  0.1093678E+01  0.7702549E+01 -0.2736754E-07 -0.2142042E-06
  0.1095455E+02 -0.6971391E-08  0.1271255E-06  0.1076869E+01  0.7771489E+01  0.9181832E-08  0.4284084E-06
  0.1115556E+02 -0.2621431E-07  0.8381903E-08  0.1060649E+01  0.7834023E+01 -0.7847596E-07 -0.2244487E-06
  0.1135657E+02 -0.9266834E-08  0.1071021E-07  0.1044992E+01  0.7890040E+01 -0.4133172E-07 -0.2328306E-07
  0.1155758E+02 -0.1047554E-07  0.1629815E-07  0.1029870E+01  0.7940277E+01 -0.4335264E-07  0.1648441E-06
  0.1175859E+02  0.1584072E-09  0.7729977E-07  0.1015285E+01  0.7985050E+01  0.4292835E-07  0.1024455E-06
  0.1195960E+02 -0.9344686E-09  0.9778887E-07  0.1001250E+01  0.8023690E+01  0.3582129E-08  0.7366762E-06
  0.1216061E+02  0.1684874E-07 -0.1396984E-07  0.9877167E+00  0.8056042E+01  0.3599504E-07  0.2430752E-06
  0.1236162E+02 -0.1107496E-07  0.1210719E-07  0.9746732E+00  0.8083998E+01 -0.2983458E-07 -0.2328306E-07
  0.1256263E+02  0.7116899E-08  0.1653098E-06  0.9620894E+00  0.8108010E+01  0.5396982E-07 -0.2188608E-06
  0.1276364E+02 -0.1386370E-07  0.8428469E-07  0.9499959E+00  0.8127451E+01 -0.3735903E-07 -0.3725290E-07
  0.1296465E+02 -0.8907606E-08 -0.1145527E-06  0.9383615E+00  0.8142176E+01 -0.6034185E-08 -0.4619360E-06
  0.1316566E+02  0.8771607E-08 -0.1136213E-06  0.9271830E+00  0.8152719E+01  0.1867503E-07 -0.1452863E-06
  0.1336667E+02  0.9336449E-08  0.3632158E-07  0.9164333E+00  0.8159375E+01  0.3818189E-07  0.1993030E-06
  0.1356768E+02  0.5628704E-08 -0.8381903E-08  0.9061398E+00  0.8162264E+01 -0.7138844E-08 -0.8381903E-08
  0.1376869E+02  0.1826296E-07  0.1317821E-06  0.8962018E+00  0.8160806E+01  0.4897180E-07  0.3343448E-06
  0.1396970E+02 -0.5533388E-08  0.2700835E-06  0.8865815E+00  0.8155071E+01 -0.9066757E-08  0.4554167E-06
  0.1417071E+02 -0.8083764E-08 -0.1662411E-06  0.8772873E+00  0.8145529E+01 -0.2155670E-07 -0.2756715E-06
  0.1437172E+02 -0.1671903E-07  0.3166497E-07  0.8684601E+00  0.8133710E+01 -0.7879977E-07  0.1993030E-06
  0.1457273E+02 -0.3144303E-07  0.2328306E-08  0.8599724E+00  0.8118328E+01 -0.9611851E-07  0.2067536E-06
  0.1477374E+02 -0.6303905E-10  0.2803281E-06  0.8517508E+00  0.8099340E+01  0.1714662E-07  0.7105991E-06
  0.1497475E+02  0.5535165E-08  0.2533197E-06  0.8438033E+00  0.8077057E+01  0.7463144E-09  0.4805624E-06
  0.1517576E+02 -0.1577185E-07 -0.1240987E-06  0.8361619E+00  0.8051308E+01 -0.1742882E-07 -0.1797453E-06
  0.1537677E+02 -0.4118546E-08  0.1140870E-07  0.8288372E+00  0.8022258E+01  0.1453604E-07 -0.4097819E-07
  0.1557778E+02  0.1614204E-08  0.3452878E-06  0.8217890E+00  0.7990346E+01 -0.1602247E-07  0.7171184E-06
  0.1577879E+02 -0.3541422E-09  0.3329478E-06  0.8149130E+00  0.7956136E+01  0.1322131E-07  0.6947666E-06
  0.1597980E+02  0.1223906E-08 -0.4842877E-07  0.8082357E+00  0.7919488E+01  0.3287062E-07 -0.1676381E-07
  0.1618081E+02  0.1600091E-07 -0.6286427E-08  0.8016993E+00  0.7880181E+01  0.7436393E-07 -0.2048910E-07
  0.1638182E+02 -0.1176815E-07 -0.4572794E-06  0.7953305E+00  0.7838923E+01 -0.3956828E-07 -0.1281500E-05
  0.1658283E+02  0.6402452E-08  0.4176982E-06  0.7893770E+00  0.7794092E+01  0.5661115E-07  0.7487833E-06
  0.1678384E+02  0.1331742E-07 -0.1811422E-06  0.7835749E+00  0.7745879E+01  0.4283769E-07 -0.4488975E-06
  0.1698485E+02 -0.3509283E-08  0.1455192E-06  0.7779142E+00  0.7694170E+01  0.3070623E-08  0.1695007E-06
  0.1718586E+02  0.5419121E-09  0.2842862E-06  0.7724013E+00  0.7639076E+01 -0.1343942E-07  0.8167699E-06
  0.1738687E+02  0.0000000E+00 -0.2442393E-06  0.7669313E+00  0.7580513E+01 -0.2806791E-07 -0.6267801E-06
  0.1758788E+02  0.3177151E-09 -0.1383014E-06  0.7614975E+00  0.7518408E+01  0.2901798E-07 -0.2905726E-06
  0.1778889E+02  0.7224875E-08  0.6123446E-07  0.7561699E+00  0.7451085E+01  0.1717217E-07 -0.4936010E-07
  0.1798990E+02 -0.7610071E-08  0.1278240E-06  0.7509524E+00  0.7378832E+01 -0.2070768E-09  0.6854534E-06
  0.1819091E+02 -0.3174223E-08 -0.6374903E-06  0.7456374E+00  0.7307351E+01 -0.2191238E-07 -0.1640059E-05
  0.1839192E+02 -0.1367215E-07  0.3355090E-06  0.7402499E+00  0.7234229E+01 -0.3058511E-07  0.6901100E-06
  0.1859293E+02 -0.3055499E-08 -0.3394671E-06  0.7347113E+00  0.7160418E+01 -0.2704868E-07 -0.1194887E-05
  0.1879394E+02  0.3964353E-09 -0.1932494E-06  0.7289129E+00  0.7085460E+01  0.2497542E-07 -0.8875504E-06
  0.1899495E+02 -0.3677251E-08  0.6915070E-07  0.7230548E+00  0.7005537E+01 -0.2686845E-07  0.1024455E-06
  0.1919596E+02 -0.5821991E-09  0.5441252E-06  0.7174463E+00  0.6908076E+01  0.2522863E-08  0.1681969E-05
  0.1939697E+02 -0.9602763E-09 -0.1753215E-06  0.7114627E+00  0.6800235E+01 -0.3456995E-08 -0.5736947E-06
  0.1959798E+02 -0.8078630E-08  0.6468035E-06  0.7050399E+00  0.6683274E+01  0.1767794E-07  0.1958571E-05
  0.1979899E+02  0.2413095E-07  0.9313226E-09  0.6981327E+00  0.6555162E+01  0.1731031E-07  0.2412125E-06
  0.2000000E+02  0.1578592E-07  0.1227017E-06  0.6903387E+00  0.6408211E+01  0.7171184E-07  0.3641471E-06
Zone t="Motion of body    1 in DoF   3",I=   100,F=POINT
  0.1000000E+00  0.2769718E+00 -0.1164949E-12 -0.8789357E-07 -0.2968916E-12  0.8651531E+00 -0.3643480E-12
  0.3010101E+00  0.2657421E+00  0.3344836E-10  0.1225994E-06  0.5528213E-10  0.8300855E+00  0.1046659E-09
  0.5020202E+00  0.2650823E+00  0.1482182E-08  0.6817675E-07  0.2578776E-09  0.8280240E+00  0.4627773E-08
  0.7030303E+00  0.2657064E+00  0.1637942E-07  0.2103003E-07  0.1842684E-09  0.8299820E+00  0.5115235E-07
  0.9040404E+00  0.2661314E+00  0.9675879E-07  0.2575445E-09  0.1834556E-09  0.8313068E+00  0.3021706E-06
  0.1105051E+01  0.2658452E+00  0.3922864E-06  0.2739058E-07  0.8681578E-09  0.8304154E+00  0.1225032E-05
  0.1306061E+01  0.2653944E+00  0.1252771E-05  0.5882888E-08  0.9410996E-09  0.8290024E+00  0.3912206E-05
  0.1507071E+01  0.2669174E+00  0.3404161E-05  0.2162890E-07  0.3387390E-08  0.8337564E+00  0.1063063E-04
  0.1708081E+01  0.2663200E+00  0.8142083E-05  0.8424035E-07  0.6019107E-08  0.8318998E+00  0.2542634E-04
  0.1909091E+01  0.2677378E+00  0.1766957E-04  0.2009883E-06  0.2938128E-07  0.8363170E+00  0.5517888E-04
  0.2110101E+01  0.2672402E+00  0.3540641E-04 -0.3067480E-07 -0.7805539E-08  0.8347694E+00  0.1105677E-03
  0.2311111E+01  0.2686532E+00  0.6658497E-04  0.1581681E-06  0.4121057E-07  0.8391730E+00  0.2079315E-03
  0.2512121E+01  0.2686083E+00  0.1185944E-03 -0.4763901E-07 -0.5263246E-08  0.8390372E+00  0.3703460E-03
  0.2713131E+01  0.2691290E+00  0.2018847E-03  0.1325002E-06  0.4412868E-07  0.8406668E+00  0.6304426E-03
  0.2914141E+01  0.2704669E+00  0.3306087E-03 -0.7829890E-08  0.1228295E-07  0.8448359E+00  0.1032416E-02
  0.3115151E+01  0.2710415E+00  0.5231082E-03  0.5680344E-07  0.4683397E-07  0.8466299E+00  0.1633543E-02
  0.3316161E+01  0.2715217E+00  0.8032764E-03 -0.1788974E-06 -0.1345684E-06  0.8481342E+00  0.2508433E-02
  0.3517171E+01  0.2727410E+00  0.1201649E-02  0.7069976E-07  0.2564047E-07  0.8519396E+00  0.3752436E-02
  0.3718182E+01  0.2739888E+00  0.1755763E-02 -0.7689673E-06 -0.7442632E-06  0.8558287E+00  0.5482753E-02
  0.3919192E+01  0.2749065E+00  0.2511344E-02 -0.1078846E-05 -0.1198528E-05  0.8586964E+00  0.7842198E-02
  0.4120202E+01  0.2757111E+00  0.3523607E-02 -0.1794290E-05 -0.2200073E-05  0.8612112E+00  0.1100316E-01
  0.4321212E+01  0.2770793E+00  0.4858746E-02  0.9112333E-06  0.1487639E-05  0.8654829E+00  0.1517231E-01
  0.4522222E+01  0.2787139E+00  0.6594231E-02  0.2385445E-05  0.3485911E-05  0.8705833E+00  0.2059156E-01
  0.4723232E+01  0.2803201E+00  0.8819680E-02 -0.3350073E-06 -0.5127004E-06  0.8755931E+00  0.2754072E-01
  0.4924242E+01  0.2816293E+00  0.1163755E-01 -0.1358144E-05 -0.2898501E-05  0.8796812E+00  0.3633970E-01
  0.5125252E+01  0.2829996E+00  0.1516251E-01  0.2985537E-06  0.8315837E-06  0.8839630E+00  0.4734660E-01
  0.5326262E+01  0.2846908E+00  0.1952250E-01 -0.5980035E-06 -0.1638153E-05  0.8892452E+00  0.6096080E-01
  0.5527273E+01  0.2866611E+00  0.2486111E-01 -0.1454119E-06 -0.3197056E-06  0.8953938E+00  0.7763064E-01
  0.5728283E+01  0.2886830E+00  0.3133642E-01  0.1934740E-06  0.6481423E-06  0.9017006E+00  0.9784966E-01
  0.5929293E+01  0.2908070E+00  0.3911910E-01  0.4583345E-06  0.1120789E-05  0.9083296E+00  0.1221506E+00
  0.6130303E+01  0.2926925E+00  0.4839586E-01 -0.9701683E-06 -0.2976740E-05  0.9142163E+00  0.1511165E+00
  0.6331313E+01  0.2945714E+00  0.5934019E-01  0.1900504E-06  0.4775065E-06  0.9200829E+00  0.1852892E+00
  0.6532323E+01  0.2964253E+00  0.7214935E-01 -0.9067543E-07 -0.2431916E-06  0.9258717E+00  0.2252841E+00
  0.6733334E+01  0.2985647E+00  0.8698560E-01  0.1947478E-06  0.9087962E-06  0.9325504E+00  0.2716078E+00
  0.6934343E+01  0.3008231E+00  0.1040644E+00  0.2068310E-06  0.1131557E-05  0.9396000E+00  0.3249333E+00
  0.7135354E+01  0.3030260E+00  0.1235862E+00 -0.1125102E-06 -0.5431357E-06  0.9464729E+00  0.3858858E+00
  0.7336363E+01  0.3051760E+00  0.1457483E+00  0.8226107E-07  0.5726470E-06  0.9531806E+00  0.4550814E+00
  0.7537374E+01  0.3071769E+00  0.1707393E+00 -0.6079182E-07 -0.6160699E-06  0.9594244E+00  0.5331082E+00
  0.7738384E+01  0.3088816E+00  0.1987576E+00  0.2647723E-07  0.3426103E-06  0.9647455E+00  0.6205861E+00
  0.7939394E+01  0.3105316E+00  0.2298174E+00  0.1691523E-06  0.4324829E-06  0.9698979E+00  0.7175590E+00
  0.8140405E+01  0.3118822E+00  0.2641037E+00 -0.1363736E-06 -0.1567882E-05  0.9741126E+00  0.8246039E+00
  0.8341414E+01  0.3131493E+00  0.3015382E+00  0.4166794E-06  0.2269866E-05  0.9780676E+00  0.9414765E+00
  0.8542424E+01  0.3143103E+00  0.3421547E+00  0.1404219E-06  0.1518056E-06  0.9816890E+00  0.1068281E+01
  0.8743435E+01  0.3151307E+00  0.3861046E+00 -0.1348503E-06 -0.1340406E-05  0.9842476E+00  0.1205493E+01
  0.8944445E+01  0.3157075E+00  0.4332572E+00 -0.5893363E-07 -0.7115304E-06  0.9860460E+00  0.1352703E+01
  0.9145455E+01  0.3161030E+00  0.4833559E+00 -0.1975589E-07 -0.8381903E-06  0.9872748E+00  0.1509105E+01
  0.9346465E+01  0.3162039E+00  0.5363219E+00  0.3069047E-07  0.6565824E-07  0.9875873E+00  0.1674457E+01
  0.9547475E+01  0.3160321E+00  0.5919239E+00 -0.2146022E-08 -0.1783483E-06  0.9870459E+00  0.1848036E+01
  0.9748485E+01  0.3156141E+00  0.6497900E+00  0.1167439E-06  0.9695068E-06  0.9857380E+00  0.2028683E+01
  0.9949495E+01  0.3148860E+00  0.7098325E+00  0.4755134E-07  0.1657754E-06  0.9834610E+00  0.2216118E+01
  0.1015051E+02  0.3138141E+00  0.7716658E+00  0.7028150E-07  0.5397014E-06  0.9801103E+00  0.2409141E+01
  0.1035151E+02  0.3124672E+00  0.8348779E+00  0.2033316E-07 -0.3203750E-06  0.9759012E+00  0.2606468E+01
  0.1055252E+02  0.3108168E+00  0.8993348E+00  0.2471166E-07 -0.1420267E-06  0.9707456E+00  0.2807675E+01
  0.1075354E+02  0.3088820E+00  0.9643975E+00 -0.2927287E-07 -0.4097819E-06  0.9647022E+00  0.3010771E+01
  0.1095455E+02  0.3066624E+00  0.1029865E+01  0.4488896E-07 -0.3194436E-06  0.9577682E+00  0.3215123E+01
  0.1115556E+02  0.3041949E+00  0.1095309E+01 -0.1870065E-07 -0.1191162E-05  0.9500607E+00  0.3419400E+01
  0.1135657E+02  0.3014861E+00  0.1160538E+01 -0.5756918E-07 -0.9639189E-06  0.9416012E+00  0.3623007E+01
  0.1155758E+02  0.2985463E+00  0.1225320E+01  0.3223244E-09 -0.7096678E-06  0.9324200E+00  0.3825209E+01
  0.1175859E+02  0.2953963E+00  0.1289138E+01  0.1222903E-06  0.1684763E-05  0.9225836E+00  0.4024396E+01
  0.1195960E+02  0.2920826E+00  0.1351561E+01 -0.2741108E-07  0.1136213E-06  0.9122355E+00  0.4219229E+01
  0.1216061E+02  0.2886502E+00  0.1412370E+01  0.5820474E-07  0.9518117E-06  0.9015191E+00  0.4409013E+01
  0.1236162E+02  0.2850465E+00  0.1471946E+01  0.3616313E-08 -0.4163012E-06  0.8902666E+00  0.4594943E+01
  0.1256263E+02  0.2813428E+00  0.1529799E+01 -0.5930749E-08  0.3706664E-06  0.8787009E+00  0.4775496E+01
  0.1276364E+02  0.2775642E+00  0.1585520E+01  0.6712950E-07  0.4442409E-06  0.8669028E+00  0.4949389E+01
  0.1296465E+02  0.2737325E+00  0.1639033E+01  0.9108746E-07  0.1061708E-06  0.8549390E+00  0.5116396E+01
  0.1316566E+02  0.2698423E+00  0.1690488E+01  0.5715692E-07  0.1443550E-06  0.8427926E+00  0.5276964E+01
  0.1336667E+02  0.2659075E+00  0.1740044E+01  0.3316530E-07  0.8139759E-06  0.8305070E+00  0.5431602E+01
  0.1356768E+02  0.2619660E+00  0.1787187E+01  0.4942276E-08 -0.7497147E-06  0.8182010E+00  0.5578708E+01
  0.1376869E+02  0.2580270E+00  0.1832004E+01  0.3327918E-07  0.1448207E-05  0.8059031E+00  0.5718550E+01
  0.1396970E+02  0.2541137E+00  0.1874485E+01 -0.3333366E-07  0.5150214E-06  0.7936859E+00  0.5851100E+01
  0.1417071E+02  0.2502232E+00  0.1914781E+01 -0.1682475E-07 -0.2244487E-06  0.7815396E+00  0.5976820E+01
  0.1437172E+02  0.2463786E+00  0.1952808E+01  0.4899065E-07 -0.7683411E-06  0.7695367E+00  0.6095460E+01
  0.1457273E+02  0.2425880E+00  0.1988506E+01 -0.5112687E-09 -0.2010725E-05  0.7577025E+00  0.6206820E+01
  0.1477374E+02  0.2388516E+00  0.2022056E+01 -0.3278031E-08  0.6174669E-06  0.7460383E+00  0.6311490E+01
  0.1497475E+02  0.2351829E+00  0.2053447E+01 -0.2189189E-07  0.1190230E-05  0.7345849E+00  0.6409413E+01
  0.1517576E+02  0.2315889E+00  0.2082516E+01  0.1325572E-07  0.5429611E-06  0.7233665E+00  0.6500085E+01
  0.1537677E+02  0.2280655E+00  0.2109722E+01  0.9545336E-07 -0.9359792E-06  0.7123669E+00  0.6584946E+01