VARIABLES="w (rad/s)"
"abs(F   1   1)" "angle(F   1   1)"
"abs(F   1   2)" "angle(F   1   2)"
"abs(F   1   3)" "angle(F   1   3)"
Zone t="Diffraction force - beta =   0.000 deg",I=    32,F=POINT
  0.1000000E+00  0.3109154E+04 -0.1570798E+01  0.2811334E+06 -0.1469350E-04  0.3011175E+04 -0.1570799E+01
  0.2000000E+00  0.1241850E+05 -0.1570790E+01  0.2728069E+06 -0.2282360E-03  0.1200400E+05 -0.1570792E+01
  0.3000000E+00  0.2773878E+05 -0.1570739E+01  0.2592039E+06 -0.1100037E-02  0.2669374E+05 -0.1570738E+01
  0.4000000E+00  0.4884655E+05 -0.1570481E+01  0.2407886E+06 -0.3246226E-02  0.4672684E+05 -0.1570481E+01
  0.5000000E+00  0.7544958E+05 -0.1569633E+01  0.2182768E+06 -0.7262561E-02  0.7160730E+05 -0.1569632E+01
  0.6000001E+00  0.1072748E+06 -0.1567450E+01  0.1925316E+06 -0.1356121E-01  0.1008007E+06 -0.1567450E+01
  0.7000000E+00  0.1442732E+06 -0.1562701E+01  0.1644020E+06 -0.2226297E-01  0.1338843E+06 -0.1562701E+01
  0.8000001E+00  0.1859067E+06 -0.1553541E+01  0.1347053E+06 -0.3317641E-01  0.1701383E+06 -0.1553542E+01
  0.9000000E+00  0.2325338E+06 -0.1537364E+01  0.1043785E+06 -0.4589491E-01  0.2091180E+06 -0.1537365E+01
  0.1000000E+01  0.2831217E+06 -0.1510829E+01  0.7391351E+05 -0.5979888E-01  0.2497772E+06 -0.1510831E+01
  0.1100000E+01  0.3376417E+06 -0.1469714E+01  0.4424054E+05 -0.7428335E-01  0.2909787E+06 -0.1469720E+01
  0.1200000E+01  0.3919913E+06 -0.1409642E+01  0.1585195E+05 -0.8706710E-01  0.3292338E+06 -0.1409655E+01
  0.1300000E+01  0.4421586E+06 -0.1327623E+01  0.1062488E+05  0.3024253E+01  0.3606120E+06 -0.1327629E+01
  0.1400000E+01  0.4797017E+06 -0.1224236E+01  0.3437412E+05  0.3010343E+01  0.3782559E+06 -0.1224258E+01
  0.1500000E+01  0.4956079E+06 -0.1107346E+01  0.5484764E+05  0.2988714E+01  0.3760035E+06 -0.1107381E+01
  0.1600000E+01  0.4846851E+06 -0.9919062E+00  0.7155222E+05  0.2961295E+01  0.3519854E+06 -0.9919834E+00
  0.1700000E+01  0.4506467E+06 -0.8942897E+00  0.8430909E+05  0.2926814E+01  0.3114166E+06 -0.8943835E+00
  0.1800000E+01  0.4026722E+06 -0.8264290E+00  0.9316662E+05  0.2883485E+01  0.2630518E+06 -0.8265422E+00
  0.1900000E+01  0.3503915E+06 -0.7919185E+00  0.9844991E+05  0.2830056E+01  0.2147854E+06 -0.7920592E+00
  0.2000000E+01  0.3001331E+06 -0.7891429E+00  0.1006439E+06  0.2765680E+01  0.1711567E+06 -0.7892415E+00
  0.2100000E+01  0.2548424E+06 -0.8141314E+00  0.1003256E+06  0.2689880E+01  0.1338286E+06 -0.8140494E+00
  0.2200000E+01  0.2153255E+06 -0.8629838E+00  0.9807452E+05  0.2602853E+01  0.1029187E+06 -0.8626699E+00
  0.2300000E+01  0.1814823E+06 -0.9317958E+00  0.9443712E+05  0.2505120E+01  0.7781438E+05 -0.9310756E+00
  0.2400000E+01  0.1527560E+06 -0.1017796E+01  0.8991161E+05  0.2397838E+01  0.5771310E+05 -0.1016477E+01
  0.2500000E+01  0.1284313E+06 -0.1118836E+01  0.8508418E+05  0.2285186E+01  0.4182041E+05 -0.1116882E+01
  0.2600000E+01  0.1078957E+06 -0.1232654E+01  0.8091195E+05  0.2184028E+01  0.2938582E+05 -0.1230765E+01
  0.2700000E+01  0.9058030E+05 -0.1358334E+01  0.5222695E+05  0.1690096E+01  0.1979936E+05 -0.1358138E+01
  0.2800000E+01  0.7596734E+05 -0.1495017E+01  0.6403399E+05  0.1788427E+01  0.1252809E+05 -0.1500482E+01
  0.2900000E+01  0.6362728E+05 -0.1641322E+01  0.5954863E+05  0.1646469E+01  0.7152430E+04 -0.1664601E+01
  0.3000000E+01  0.5318660E+05 -0.1796000E+01  0.5463939E+05  0.1484543E+01  0.3309416E+04 -0.1882231E+01
  0.3100000E+01  0.4428055E+05 -0.1956718E+01  0.4981480E+05  0.1310457E+01  0.7453231E+03 -0.2494277E+01
  0.3200000E+01  0.3650512E+05 -0.2118205E+01  0.4524555E+05  0.1127244E+01  0.1146282E+04  0.1407821E+01
