VARIABLES="w (rad/s)"
"A   1   1" "B   1   1"
"A   1   2" "B   1   2"
"A   1   3" "B   1   3"
Zone t="Motion of body    1 in DoF   1",I=    32,F=POINT
  0.1000000E+00  0.1197093E+06  0.2499522E-02  0.2426729E-02 -0.4097203E-05  0.1085911E+06  0.2405989E-02
  0.2000000E+00  0.1214733E+06  0.3238546E+00  0.1988485E-02  0.2076092E-06  0.1103086E+06  0.3130586E+00
  0.3000000E+00  0.1228949E+06  0.5453725E+01  0.1101355E-01  0.2035331E-03  0.1113325E+06  0.5248082E+01
  0.4000000E+00  0.1251116E+06  0.4008406E+02  0.6407499E-02 -0.1163482E-04  0.1130688E+06  0.3834471E+02
  0.5000000E+00  0.1282058E+06  0.1867776E+03 -0.5816340E-02 -0.2952862E-03  0.1154695E+06  0.1772663E+03
  0.6000001E+00  0.1324378E+06  0.6524984E+03 -0.3612240E-02 -0.1369406E-02  0.1187402E+06  0.6131150E+03
  0.7000000E+00  0.1384185E+06  0.1872303E+04 -0.9060502E-02 -0.9483272E-02  0.1233041E+06  0.1737459E+04
  0.8000001E+00  0.1455287E+06  0.4641798E+04 -0.2008192E-01  0.1601895E-02  0.1288473E+06  0.4248033E+04
  0.9000000E+00  0.1546138E+06  0.1033338E+05 -0.5646017E-02 -0.6041702E-02  0.1355075E+06  0.9292489E+04
  0.1000000E+01  0.1644218E+06  0.2101059E+05 -0.1787114E-01 -0.1060940E-01  0.1425841E+06  0.1853534E+05
  0.1100000E+01  0.1746041E+06  0.3971453E+05 -0.2143925E-02 -0.7151157E-02  0.1490748E+06  0.3422313E+05
  0.1200000E+01  0.1810945E+06  0.6959309E+05 -0.1921088E-01 -0.2872244E-02  0.1520568E+06  0.5844551E+05
  0.1300000E+01  0.1804454E+06  0.1125864E+06 -0.1448851E-02  0.4439920E-02  0.1486109E+06  0.9181719E+05
  0.1400000E+01  0.1672140E+06  0.1655727E+06 -0.2072113E-02 -0.1529455E-02  0.1349282E+06  0.1305418E+06
  0.1500000E+01  0.1392953E+06  0.2173549E+06  0.6560644E-02 -0.7674098E-02  0.1105436E+06  0.1648711E+06
  0.1600000E+01  0.1013038E+06  0.2522594E+06  0.3780276E-02 -0.1833439E-03  0.8039125E+05  0.1831362E+06
  0.1700000E+01  0.6320306E+05  0.2614315E+06  0.1107104E-02  0.5112559E-02  0.5264126E+05  0.1805664E+06
  0.1800000E+01  0.3314106E+05  0.2475846E+06  0.1376536E-02 -0.3637463E-02  0.3292705E+05  0.1615816E+06
  0.1900000E+01  0.1367338E+05  0.2202266E+06  0.9147745E-02 -0.5259112E-02  0.2217305E+05  0.1347620E+06
  0.2000000E+01  0.3362664E+04  0.1881280E+06  0.4533291E-02  0.3800549E-02  0.1840709E+05  0.1069505E+06
  0.2100000E+01 -0.4679884E+03  0.1566130E+06  0.6258375E-02  0.1640687E-02  0.1911997E+05  0.8178848E+05
  0.2200000E+01 -0.1802469E+03  0.1281205E+06  0.1591444E-02  0.1125949E-02  0.2235441E+05  0.6067950E+05
  0.2300000E+01  0.2498042E+04  0.1035792E+06  0.2280007E-02  0.1529716E-02  0.2675612E+05  0.4378775E+05
  0.2400000E+01  0.6434477E+04  0.8303462E+05  0.2143780E-03 -0.3691588E-02  0.3150621E+05  0.3073534E+05
  0.2500000E+01  0.1091988E+05  0.6613237E+05  0.4302788E-02 -0.9800680E-03  0.3614355E+05  0.2101534E+05
  0.2600000E+01  0.1548908E+05  0.5241812E+05 -0.4681532E-02 -0.9525940E-04  0.4039898E+05  0.1398104E+05
  0.2700000E+01  0.1988660E+05  0.4146330E+05 -0.5904330E-01 -0.4275677E-01  0.4414969E+05  0.9065952E+04
  0.2800000E+01  0.2397056E+05  0.3274395E+05 -0.7105896E-02 -0.6382893E-01  0.4736689E+05  0.5723521E+04
  0.2900000E+01  0.2767864E+05  0.2576817E+05 -0.1523084E-01 -0.3037746E-01  0.5007612E+05  0.3508064E+04
  0.3000000E+01  0.3099722E+05  0.2014773E+05 -0.6848653E-02 -0.3316374E-01  0.5233945E+05  0.2008682E+04
  0.3100000E+01  0.3395903E+05  0.1549393E+05 -0.3742249E-02 -0.1226171E-01  0.5424562E+05  0.9045142E+03
  0.3200000E+01  0.3661791E+05  0.1149428E+05  0.6008893E-03 -0.9806242E-02  0.5586307E+05  0.6384734E+02
Zone t="Motion of body    1 in DoF   2",I=    32,F=POINT
  0.1000000E+00  0.1067162E-01 -0.2188608E-07  0.8788766E+05  0.4129921E+02  0.8558035E-02 -0.1845881E-05
  0.2000000E+00  0.7895827E-02 -0.4621595E-04  0.8861375E+05  0.3111323E+03  0.1238585E-02 -0.4567206E-04
  0.3000000E+00  0.1018325E-01  0.1057088E-03  0.8860181E+05  0.9481172E+03  0.8509954E-02  0.1223087E-03
  0.4000000E+00  0.1347125E-01 -0.2929568E-04  0.8803423E+05  0.1939903E+04  0.8676052E-02  0.6639957E-04
  0.5000000E+00 -0.1749039E-02 -0.2672970E-03  0.8674949E+05  0.3114689E+04 -0.8710861E-02 -0.4827976E-03
  0.6000001E+00  0.1183311E-01 -0.5757809E-04  0.8493904E+05  0.4189521E+04  0.7336933E-02  0.4719496E-03
  0.7000000E+00  0.3021649E-01 -0.3993511E-05  0.8308847E+05  0.4854649E+04  0.1295635E-01  0.6275177E-03
  0.8000001E+00 -0.1246333E-01 -0.1620412E-02  0.8164505E+05  0.4869782E+04 -0.2047419E-01 -0.6420612E-03
  0.9000000E+00  0.3525310E-01  0.2440453E-02  0.8063955E+05  0.4167119E+04  0.2611478E-01  0.2656698E-02
  0.1000000E+01 -0.8349419E-02 -0.2875507E-02  0.8075086E+05  0.2864911E+04 -0.8311272E-02 -0.3637075E-02
  0.1100000E+01 -0.1089573E-01 -0.6237537E-02  0.8163627E+05  0.1350186E+04 -0.2039563E-01 -0.6408691E-02
  0.1200000E+01 -0.3953655E-01 -0.1061948E-01  0.8357073E+05  0.1656338E+03 -0.4187902E-01 -0.8416802E-02
  0.1300000E+01 -0.5545983E-02 -0.4466400E-02  0.8624080E+05 -0.7766757E+01 -0.8445153E-02 -0.4426569E-02
  0.1400000E+01  0.9707383E-02  0.3057301E-02  0.8908128E+05  0.1443439E+04  0.4850115E-02  0.1317859E-02
  0.1500000E+01  0.1274808E-01  0.1182657E-01  0.9161349E+05  0.4937072E+04  0.1219813E-01  0.8311391E-02
  0.1600000E+01  0.2308518E-01  0.3711390E-01  0.9330634E+05  0.1045955E+05  0.1709938E-01  0.2945256E-01
  0.1700000E+01  0.2119008E-01  0.5561361E-01  0.9386277E+05  0.1763871E+05  0.7897545E-02  0.4399610E-01
  0.1800000E+01 -0.6534788E-02  0.1203895E-01  0.9315514E+05  0.2576959E+05 -0.5967882E-02  0.8816242E-02
  0.1900000E+01  0.3082878E-02  0.4732391E-01  0.9128455E+05  0.3399087E+05  0.1365260E-03  0.3222835E-01
  0.2000000E+01  0.4185677E-02  0.4282747E-01  0.8852488E+05  0.4156107E+05 -0.3128052E-02  0.2937835E-01
  0.2100000E+01  0.4467283E-02  0.4658958E-01  0.8521666E+05  0.4788805E+05  0.1860119E-02  0.3121683E-01
  0.2200000E+01  0.2660751E-02  0.5735978E-02  0.8164766E+05  0.5259811E+05  0.9033896E-03  0.2408266E-02
  0.2300000E+01  0.3317958E-02  0.3353679E-01  0.7810410E+05  0.5561941E+05  0.6004002E-03  0.2437723E-01
  0.2400000E+01 -0.5303621E-02  0.3518334E-01  0.7476312E+05  0.5698515E+05 -0.5531311E-02  0.2060223E-01
  0.2500000E+01 -0.8319855E-03  0.3015956E-01  0.7162705E+05  0.5692177E+05 -0.4618836E-02  0.2535498E-01
  0.2600000E+01 -0.3619928E-02  0.9862840E-02  0.6835273E+05  0.5569488E+05 -0.9790568E-02  0.3303409E-02
  0.2700000E+01 -0.2381395E-01 -0.5186403E-01  0.7544233E+05  0.4297084E+05 -0.2523069E-01 -0.8286715E-02
  0.2800000E+01  0.4472051E-02  0.2823752E-01  0.6766316E+05  0.4959195E+05 -0.4155295E-02  0.1860750E-01
  0.2900000E+01  0.1173381E-01  0.4274070E-02  0.6599345E+05  0.4652802E+05  0.6740175E-02  0.6301403E-02
  0.3000000E+01  0.1048915E-01 -0.1459798E-01  0.6496414E+05  0.4302829E+05  0.7849376E-02 -0.5867124E-02
  0.3100000E+01  0.6897527E-02  0.3092587E-03  0.6432918E+05  0.3930252E+05  0.5589147E-02  0.2090752E-02
  0.3200000E+01  0.8466244E-02 -0.2827466E-02  0.6397115E+05  0.3555487E+05  0.6780624E-02 -0.3220439E-03
Zone t="Motion of body    1 in DoF   3",I=    32,F=POINT
  0.1000000E+00  0.1087794E+06  0.2395512E-02  0.7598102E-03 -0.4478343E-05  0.1317841E+06  0.2236747E-02
  0.2000000E+00  0.1104657E+06  0.3136323E+00 -0.1069605E-02 -0.4754754E-04  0.1333507E+06  0.3030913E+00
  0.3000000E+00  0.1115051E+06  0.5259023E+01  0.1286268E-02 -0.2592944E-03  0.1341505E+06  0.5060693E+01
  0.4000000E+00  0.1132254E+06  0.3842439E+02  0.3760606E-02  0.1292092E-04  0.1355177E+06  0.3675618E+02
  0.5000000E+00  0.1156399E+06  0.1776481E+03 -0.1277900E-01 -0.8985078E-03  0.1374310E+06  0.1686015E+03
  0.6000001E+00  0.1189383E+06  0.6145237E+03  0.1021633E-01  0.6239077E-03  0.1400630E+06  0.5774332E+03
  0.7000000E+00  0.1234823E+06  0.1742312E+04 -0.2099505E-01 -0.5569688E-02  0.1436064E+06  0.1616831E+04
  0.8000001E+00  0.1290594E+06  0.4258567E+04 -0.3725126E-01 -0.8122072E-02  0.1480002E+06  0.3897307E+04
  0.9000000E+00  0.1357498E+06  0.9320942E+04  0.1091056E-01  0.1525011E-01  0.1529749E+06  0.8381987E+04
  0.1000000E+01  0.1428562E+06  0.1858682E+05 -0.1124930E-01 -0.1269200E-01  0.1580999E+06  0.1639701E+05
  0.1100000E+01  0.1493691E+06  0.3434193E+05 -0.2958352E-01 -0.1346905E-01  0.1621013E+06  0.2959304E+05
  0.1200000E+01  0.1524110E+06  0.5863633E+05 -0.3465801E-01 -0.9512201E-02  0.1628845E+06  0.4924272E+05
  0.1300000E+01  0.1489499E+06  0.9210766E+05 -0.9944622E-02  0.1813203E-02  0.1580331E+06  0.7511381E+05
  0.1400000E+01  0.1352471E+06  0.1309656E+06 -0.6843976E-02 -0.4212677E-02  0.1450090E+06  0.1032489E+06
  0.1500000E+01  0.1107884E+06  0.1654403E+06  0.1143281E-01 -0.3172606E-02  0.1244738E+06  0.1254783E+06
  0.1600000E+01  0.8053355E+05  0.1838137E+06  0.4353672E-02 -0.3684729E-02  0.1010944E+06  0.1334144E+06
  0.1700000E+01  0.5266756E+05  0.1812824E+06 -0.1091901E-01  0.4148811E-02  0.8144563E+05  0.1251570E+06
  0.1800000E+01  0.3285264E+05  0.1622711E+06  0.1180172E-02  0.9747893E-03  0.6909648E+05  0.1058031E+06
  0.1900000E+01  0.2202520E+05  0.1353627E+06  0.1797049E-02 -0.5149476E-02  0.6395723E+05  0.8268182E+05
  0.2000000E+01  0.1821587E+05  0.1074363E+06  0.4865408E-02  0.1822621E-02  0.6387145E+05  0.6086950E+05
  0.2100000E+01  0.1890914E+05  0.8215045E+05  0.6586030E-02 -0.2170786E-02  0.6658868E+05  0.4256428E+05
  0.2200000E+01  0.2213409E+05  0.6090023E+05  0.3653331E-02  0.5418975E-03  0.7065540E+05  0.2845086E+05
  0.2300000E+01  0.2653959E+05  0.4388119E+05  0.7184278E-02  0.6407313E-04  0.7504585E+05  0.1813138E+05
  0.2400000E+01  0.3130807E+05  0.3070789E+05 -0.1247128E-02  0.2453376E-02  0.7919983E+05  0.1086832E+05
  0.2500000E+01  0.3597093E+05  0.2087360E+05 -0.2603912E-02  0.2575599E-02  0.8290632E+05  0.6191628E+04
  0.2600000E+01  0.4025378E+05  0.1369479E+05 -0.2219475E-01  0.6064823E-02  0.8604808E+05  0.3451517E+04
  0.2700000E+01  0.4404329E+05  0.8687275E+04  0.3045930E-01  0.7051852E-01  0.8860793E+05  0.1924776E+04
  0.2800000E+01  0.4730358E+05  0.5284116E+04 -0.4852499E-02  0.2075828E-02  0.9065012E+05  0.1124363E+04
  0.2900000E+01  0.5006845E+05  0.3013641E+04 -0.1043550E-01 -0.1177447E-01  0.9224688E+05  0.8353768E+03
  0.3000000E+01  0.5238357E+05  0.1491950E+04 -0.2698739E-02 -0.8104680E-02  0.9350628E+05  0.6831809E+03
  0.3100000E+01  0.5432225E+05  0.4491562E+03  0.2070550E-02  0.7708459E-03  0.9453742E+05  0.4565711E+03
  0.3200000E+01  0.5597909E+05 -0.2689135E+03  0.1156479E-02  0.1626116E-02  0.9540852E+05  0.1500836E+03
