 VARIABLES="Time (s)"
"AddedMass    1" "IRF    1"
"AddedMass    2" "IRF    2"
"AddedMass    3" "IRF    3"
Zone t="DoF    1",I=   160,F=POINT
  0.0000000E+00  0.5648471E+05  0.1550706E+06 -0.1939146E-02 -0.3266153E-02  0.9380270E+05  0.1729571E+06
  0.1000000E+00  0.5648471E+05  0.1519630E+06 -0.1939146E-02 -0.3244146E-02  0.9380270E+05  0.1698421E+06
  0.2000000E+00  0.5648471E+05  0.1427940E+06 -0.1939146E-02 -0.3178199E-02  0.9380270E+05  0.1606333E+06
  0.3000000E+00  0.5648471E+05  0.1280150E+06 -0.1939146E-02 -0.3068554E-02  0.9380270E+05  0.1457327E+06
  0.4000000E+00  0.5648471E+05  0.1083492E+06 -0.1939146E-02 -0.2915698E-02  0.9380270E+05  0.1257870E+06
  0.5000000E+00  0.5648471E+05  0.8474965E+05 -0.1939146E-02 -0.2720463E-02  0.9380270E+05  0.1016548E+06
  0.6000000E+00  0.5648471E+05  0.5834398E+05 -0.1939146E-02 -0.2484164E-02  0.9380270E+05  0.7436261E+05
  0.7000000E+00  0.5648471E+05  0.3037099E+05 -0.1939146E-02 -0.2208732E-02  0.9380270E+05  0.4505316E+05
  0.8000000E+00  0.5648471E+05  0.2111010E+04 -0.1939146E-02 -0.1896847E-02  0.9380270E+05  0.1492902E+05
  0.9000000E+00  0.5648471E+05 -0.2518375E+05 -0.1939146E-02 -0.1552040E-02  0.9380270E+05 -0.1480591E+05
  0.1000000E+01  0.5648471E+05 -0.5035535E+05 -0.1939146E-02 -0.1178752E-02  0.9380270E+05 -0.4300311E+05
  0.1100000E+01  0.5648471E+05 -0.7239852E+05 -0.1939146E-02 -0.7823411E-03  0.9380270E+05 -0.6862181E+05
  0.1200000E+01  0.5648471E+05 -0.9050795E+05 -0.1939146E-02 -0.3690318E-03  0.9380270E+05 -0.9077371E+05
  0.1300000E+01  0.5648471E+05 -0.1041118E+06 -0.1939146E-02  0.5419265E-04  0.9380270E+05 -0.1087583E+06
  0.1400000E+01  0.5648471E+05 -0.1128903E+06 -0.1939146E-02  0.4797529E-03  0.9380270E+05 -0.1220871E+06
  0.1500000E+01  0.5648471E+05 -0.1167779E+06 -0.1939146E-02  0.8996792E-03  0.9380270E+05 -0.1304956E+06
  0.1600000E+01  0.5648471E+05 -0.1159514E+06 -0.1939146E-02  0.1305839E-02  0.9380270E+05 -0.1339437E+06
  0.1700000E+01  0.5648471E+05 -0.1108034E+06 -0.1939146E-02  0.1690182E-02  0.9380270E+05 -0.1326038E+06
  0.1800000E+01  0.5648471E+05 -0.1019056E+06 -0.1939146E-02  0.2044978E-02  0.9380270E+05 -0.1268398E+06
  0.1900000E+01  0.5648471E+05 -0.8996341E+05 -0.1939146E-02  0.2363038E-02  0.9380270E+05 -0.1171764E+06
  0.2000000E+01  0.5648471E+05 -0.7576633E+05 -0.1939146E-02  0.2637899E-02  0.9380270E+05 -0.1042631E+06
  0.2100000E+01  0.5648471E+05 -0.6013706E+05 -0.1939146E-02  0.2863974E-02  0.9380270E+05 -0.8883452E+05
  0.2200000E+01  0.5648471E+05 -0.4388313E+05 -0.1939146E-02  0.3036663E-02  0.9380270E+05 -0.7166899E+05
  0.2300000E+01  0.5648471E+05 -0.2775362E+05 -0.1939146E-02  0.3152426E-02  0.9380270E+05 -0.5354827E+05
  0.2400000E+01  0.5648471E+05 -0.1240394E+05 -0.1939146E-02  0.3208819E-02  0.9380270E+05 -0.3522114E+05
  0.2500000E+01  0.5648471E+05  0.1629954E+04 -0.1939146E-02  0.3204518E-02  0.9380270E+05 -0.1737196E+05
  0.2600000E+01  0.5648471E+05  0.1394728E+05 -0.1939146E-02  0.3139320E-02  0.9380270E+05 -0.5952297E+03
  0.2700000E+01  0.5648471E+05  0.2428729E+05 -0.1939146E-02  0.3014158E-02  0.9380270E+05  0.1462178E+05
  0.2800000E+01  0.5648471E+05  0.3252481E+05 -0.1939146E-02  0.2831104E-02  0.9380270E+05  0.2790946E+05
  0.2900000E+01  0.5648471E+05  0.3865721E+05 -0.1939146E-02  0.2593396E-02  0.9380270E+05  0.3901873E+05
  0.3000000E+01  0.5648471E+05  0.4278487E+05 -0.1939146E-02  0.2305470E-02  0.9380270E+05  0.4781687E+05
  0.3100000E+01  0.5648471E+05  0.4508759E+05 -0.1939146E-02  0.1972976E-02  0.9380270E+05  0.5427838E+05
  0.3200000E+01  0.5648471E+05  0.4579878E+05 -0.1939146E-02  0.1602811E-02  0.9380270E+05  0.5847079E+05
  0.3300000E+01  0.5648471E+05  0.4518009E+05 -0.1939146E-02  0.1203091E-02  0.9380270E+05  0.6053796E+05
  0.3400000E+01  0.5648471E+05  0.4349817E+05 -0.1939146E-02  0.7831024E-03  0.9380270E+05  0.6068157E+05
  0.3500000E+01  0.5648471E+05  0.4100525E+05 -0.1939146E-02  0.3531721E-03  0.9380270E+05  0.5914268E+05
  0.3600000E+01  0.5648471E+05  0.3792477E+05 -0.1939146E-02 -0.7554046E-04  0.9380270E+05  0.5618427E+05
  0.3700000E+01  0.5648471E+05  0.3444230E+05 -0.1939146E-02 -0.4913326E-03  0.9380270E+05  0.5207585E+05
  0.3800000E+01  0.5648471E+05  0.3070207E+05 -0.1939146E-02 -0.8823441E-03  0.9380270E+05  0.4708061E+05
  0.3900000E+01  0.5648471E+05  0.2680830E+05 -0.1939146E-02 -0.1237031E-02  0.9380270E+05  0.4144577E+05
  0.4000000E+01  0.5648471E+05  0.2283075E+05 -0.1939146E-02 -0.1544683E-02  0.9380270E+05  0.3539617E+05
  0.4100000E+01  0.5648471E+05  0.1881315E+05 -0.1939146E-02 -0.1796002E-02  0.9380270E+05  0.2913051E+05
  0.4200000E+01  0.5648471E+05  0.1478296E+05 -0.1939146E-02 -0.1983659E-02  0.9380270E+05  0.2282033E+05
  0.4300000E+01  0.5648471E+05  0.1076162E+05 -0.1939146E-02 -0.2102800E-02  0.9380270E+05  0.1661119E+05
  0.4400000E+01  0.5648471E+05  0.6773380E+04 -0.1939146E-02 -0.2151477E-02  0.9380270E+05  0.1062468E+05
  0.4500000E+01  0.5648471E+05  0.2852447E+04 -0.1939146E-02 -0.2130925E-02  0.9380270E+05  0.4961846E+04
  0.4600000E+01  0.5648471E+05 -0.9529944E+03 -0.1939146E-02 -0.2045667E-02  0.9380270E+05 -0.2937714E+03
  0.4700000E+01  0.5648471E+05 -0.4579522E+04 -0.1939146E-02 -0.1903410E-02  0.9380270E+05 -0.5073080E+04
  0.4800000E+01  0.5648471E+05 -0.7950515E+04 -0.1939146E-02 -0.1714727E-02  0.9380270E+05 -0.9319262E+04
  0.4900000E+01  0.5648471E+05 -0.1098070E+05 -0.1939146E-02 -0.1492505E-02  0.9380270E+05 -0.1298632E+05
  0.5000000E+01  0.5648471E+05 -0.1358300E+05 -0.1939146E-02 -0.1251210E-02  0.9380270E+05 -0.1603883E+05
  0.5100000E+01  0.5648471E+05 -0.1567614E+05 -0.1939146E-02 -0.1005985E-02  0.9380270E+05 -0.1845201E+05
  0.5200000E+01  0.5648471E+05 -0.1719287E+05 -0.1939146E-02 -0.7716409E-03  0.9380270E+05 -0.2021296E+05
  0.5300000E+01  0.5648471E+05 -0.1808719E+05 -0.1939146E-02 -0.5616182E-03  0.9380270E+05 -0.2132167E+05
  0.5400000E+01  0.5648471E+05 -0.1834031E+05 -0.1939146E-02 -0.3869814E-03  0.9380270E+05 -0.2179251E+05
  0.5500000E+01  0.5648471E+05 -0.1796398E+05 -0.1939146E-02 -0.2555436E-03  0.9380270E+05 -0.2165488E+05
  0.5600000E+01  0.5648471E+05 -0.1700153E+05 -0.1939146E-02 -0.1711821E-03  0.9380270E+05 -0.2095353E+05
  0.5700000E+01  0.5648471E+05 -0.1552601E+05 -0.1939146E-02 -0.1334219E-03  0.9380270E+05 -0.1974801E+05
  0.5800000E+01  0.5648471E+05 -0.1363570E+05 -0.1939146E-02 -0.1373287E-03  0.9380270E+05 -0.1811105E+05
  0.5900000E+01  0.5648471E+05 -0.1144750E+05 -0.1939146E-02 -0.1737486E-03  0.9380270E+05 -0.1612619E+05
  0.6000000E+01  0.5648471E+05 -0.9088567E+04 -0.1939146E-02 -0.2298781E-03  0.9380270E+05 -0.1388433E+05
  0.6100000E+01  0.5648471E+05 -0.6687485E+04 -0.1939146E-02 -0.2901712E-03  0.9380270E+05 -0.1148001E+05
  0.6200000E+01  0.5648471E+05 -0.4365093E+04 -0.1939146E-02 -0.3374961E-03  0.9380270E+05 -0.9007033E+04
  0.6300000E+01  0.5648471E+05 -0.2226544E+04 -0.1939146E-02 -0.3544995E-03  0.9380270E+05 -0.6554356E+04
  0.6400000E+01  0.5648471E+05 -0.3546378E+03 -0.1939146E-02 -0.3250617E-03  0.9380270E+05 -0.4202133E+04
  0.6500000E+01  0.5648471E+05  0.1194731E+04 -0.1939146E-02 -0.2357446E-03  0.9380270E+05 -0.2018179E+04
  0.6600000E+01  0.5648471E+05  0.2394325E+04 -0.1939146E-02 -0.7711954E-04  0.9380270E+05 -0.5585512E+02
  0.6700000E+01  0.5648471E+05  0.3245211E+04 -0.1939146E-02  0.1551239E-03  0.9380270E+05  0.1647605E+04
  0.6800000E+01  0.5648471E+05  0.3773842E+04 -0.1939146E-02  0.4594084E-03  0.9380270E+05  0.3071359E+04
  0.6900000E+01  0.5648471E+05  0.4027025E+04 -0.1939146E-02  0.8278931E-03  0.9380270E+05  0.4210105E+04
  0.7000000E+01  0.5648471E+05  0.4065601E+04 -0.1939146E-02  0.1246536E-02  0.9380270E+05  0.5072419E+04
  0.7100000E+01  0.5648471E+05  0.3957270E+04 -0.1939146E-02  0.1695648E-02  0.9380270E+05  0.5678182E+04
  0.7200000E+01  0.5648471E+05  0.3769266E+04 -0.1939146E-02  0.2150872E-02  0.9380270E+05  0.6055514E+04
  0.7300000E+01  0.5648471E+05  0.3561822E+04 -0.1939146E-02  0.2584574E-02  0.9380270E+05  0.6237519E+04
  0.7400000E+01  0.5648471E+05  0.3382582E+04 -0.1939146E-02  0.2967561E-02  0.9380270E+05  0.6258866E+04
  0.7500000E+01  0.5648471E+05  0.3263016E+04 -0.1939146E-02  0.3270986E-02  0.9380270E+05  0.6153081E+04
  0.7600000E+01  0.5648471E+05  0.3216554E+04 -0.1939146E-02  0.3468357E-02  0.9380270E+05  0.5949994E+04
  0.7700000E+01  0.5648471E+05  0.3238882E+04 -0.1939146E-02  0.3537466E-02  0.9380270E+05  0.5674147E+04
  0.7800000E+01  0.5648471E+05  0.3310045E+04 -0.1939146E-02  0.3462149E-02  0.9380270E+05  0.5343886E+04
  0.7900000E+01  0.5648471E+05  0.3398301E+04 -0.1939146E-02  0.3233691E-02  0.9380270E+05  0.4971380E+04
  0.8000000E+01  0.5648471E+05  0.3464813E+04 -0.1939146E-02  0.2851805E-02  0.9380270E+05  0.4563145E+04
  0.8100000E+01  0.5648471E+05  0.3469345E+04 -0.1939146E-02  0.2325100E-02  0.9380270E+05  0.4121500E+04
  0.8200000E+01  0.5648471E+05  0.3375434E+04 -0.1939146E-02  0.1670966E-02  0.9380270E+05  0.3646054E+04
  0.8300000E+01  0.5648471E+05  0.3155366E+04 -0.1939146E-02  0.9148661E-03  0.9380270E+05  0.3135624E+04
  0.8400001E+01  0.5648471E+05  0.2793803E+04 -0.1939146E-02  0.8911941E-04  0.9380270E+05  0.2589960E+04
  0.8500000E+01  0.5648471E+05  0.2290188E+04 -0.1939146E-02 -0.7688467E-03  0.9380270E+05  0.2011369E+04
  0.8600000E+01  0.5648471E+05  0.1659296E+04 -0.1939146E-02 -0.1618632E-02  0.9380270E+05  0.1405730E+04
  0.8700000E+01  0.5648471E+05  0.9301785E+03 -0.1939146E-02 -0.2419181E-02  0.9380270E+05  0.7830541E+03
  0.8800000E+01  0.5648471E+05  0.1435883E+03 -0.1939146E-02 -0.3131302E-02  0.9380270E+05  0.1574338E+03
  0.8900001E+01  0.5648471E+05 -0.6516821E+03 -0.1939146E-02 -0.3720037E-02  0.9380270E+05 -0.4533702E+03
  0.9000000E+01  0.5648471E+05 -0.1403842E+04 -0.1939146E-02 -0.4156854E-02  0.9380270E+05 -0.1029565E+04
  0.9100000E+01  0.5648471E+05 -0.2062623E+04 -0.1939146E-02 -0.4421507E-02  0.9380270E+05 -0.1550197E+04
  0.9200000E+01  0.5648471E+05 -0.2584414E+04 -0.1939146E-02 -0.4503305E-02  0.9380270E+05 -0.1995426E+04
  0.9300000E+01  0.5648471E+05 -0.2936250E+04 -0.1939146E-02 -0.4401891E-02  0.9380270E+05 -0.2347936E+04
  0.9400001E+01  0.5648471E+05 -0.3098921E+04 -0.1939146E-02 -0.4127312E-02  0.9380270E+05 -0.2594696E+04
  0.9500000E+01  0.5648471E+05 -0.3068690E+04 -0.1939146E-02 -0.3699452E-02  0.9380270E+05 -0.2728175E+04
  0.9600000E+01  0.5648471E+05 -0.2857526E+04 -0.1939146E-02 -0.3146794E-02  0.9380270E+05 -0.2747197E+04
  0.9700000E+01  0.5648471E+05 -0.2491693E+04 -0.1939146E-02 -0.2504682E-02  0.9380270E+05 -0.2657106E+04
  0.9800000E+01  0.5648471E+05 -0.2009232E+04 -0.1939146E-02 -0.1813037E-02  0.9380270E+05 -0.2469575E+04
  0.9900001E+01  0.5648471E+05 -0.1456064E+04 -0.1939146E-02 -0.1113829E-02  0.9380270E+05 -0.2201539E+04
  0.1000000E+02  0.5648471E+05 -0.8818562E+03 -0.1939146E-02 -0.4483656E-03  0.9380270E+05 -0.1874212E+04
  0.1010000E+02  0.5648471E+05 -0.3350626E+03 -0.1939146E-02  0.1454300E-03  0.9380270E+05 -0.1510993E+04
  0.1020000E+02  0.5648471E+05  0.1411233E+03 -0.1939146E-02  0.6354427E-03  0.9380270E+05 -0.1136086E+04
  0.1030000E+02  0.5648471E+05  0.5129083E+03 -0.1939146E-02  0.9975426E-03  0.9380270E+05 -0.7721937E+03
  0.1040000E+02  0.5648471E+05  0.7583350E+03 -0.1939146E-02  0.1217141E-02  0.9380270E+05 -0.4391975E+03
  0.1050000E+02  0.5648471E+05  0.8690576E+03 -0.1939146E-02  0.1290177E-02  0.9380270E+05 -0.1525444E+03
  0.1060000E+02  0.5648471E+05  0.8502789E+03 -0.1939146E-02  0.1223372E-02  0.9380270E+05  0.7751170E+02
  0.1070000E+02  0.5648471E+05  0.7198430E+03 -0.1939146E-02  0.1033746E-02  0.9380270E+05  0.2465804E+03
  0.1080000E+02  0.5648471E+05  0.5055481E+03 -0.1939146E-02  0.7474391E-03  0.9380270E+05  0.3556660E+03
  0.1090000E+02  0.5648471E+05  0.2422373E+03 -0.1939146E-02  0.3978502E-03  0.9380270E+05  0.4110177E+03
  0.1100000E+02  0.5648471E+05 -0.3224512E+02 -0.1939146E-02  0.2328139E-04  0.9380270E+05  0.4228185E+03
  0.1110000E+02  0.5648471E+05 -0.2811132E+03 -0.1939146E-02 -0.3358459E-03  0.9380270E+05  0.4038189E+03
  0.1120000E+02  0.5648471E+05 -0.4722841E+03 -0.1939146E-02 -0.6399324E-03  0.9380270E+05  0.3679473E+03
  0.1130000E+02  0.5648471E+05 -0.5814797E+03 -0.1939146E-02 -0.8531772E-03  0.9380270E+05  0.3288751E+03
  0.1140000E+02  0.5648471E+05 -0.5947104E+03 -0.1939146E-02 -0.9463087E-03  0.9380270E+05  0.2983272E+03
  0.1150000E+02  0.5648471E+05 -0.5092397E+03 -0.1939146E-02 -0.8989600E-03  0.9380270E+05  0.2851953E+03
  0.1160000E+02  0.5648471E+05 -0.3336397E+03 -0.1939146E-02 -0.7014149E-03  0.9380270E+05  0.2946084E+03
  0.1170000E+02  0.5648471E+05 -0.8656528E+02 -0.1939146E-02 -0.3556811E-03  0.9380270E+05  0.3276706E+03
  0.1180000E+02  0.5648471E+05  0.2054697E+03 -0.1939146E-02  0.1242916E-03  0.9380270E+05  0.3815551E+03
  0.1190000E+02  0.5648471E+05  0.5109614E+03 -0.1939146E-02  0.7132072E-03  0.9380270E+05  0.4499188E+03
  0.1200000E+02  0.5648471E+05  0.7968945E+03 -0.1939146E-02  0.1375891E-02  0.9380270E+05  0.5238802E+03
  0.1210000E+02  0.5648471E+05  0.1032285E+04 -0.1939146E-02  0.2069497E-02  0.9380270E+05  0.5931583E+03
  0.1220000E+02  0.5648471E+05  0.1191155E+04 -0.1939146E-02  0.2746319E-02  0.9380270E+05  0.6471027E+03
  0.1230000E+02  0.5648471E+05  0.1255443E+04 -0.1939146E-02  0.3357113E-02  0.9380270E+05  0.6762343E+03
  0.1240000E+02  0.5648471E+05  0.1216616E+04 -0.1939146E-02  0.3854512E-02  0.9380270E+05  0.6731497E+03
  0.1250000E+02  0.5648471E+05  0.1076611E+04 -0.1939146E-02  0.4196578E-02  0.9380270E+05  0.6335776E+03
  0.1260000E+02  0.5648471E+05  0.8471202E+03 -0.1939146E-02  0.4349969E-02  0.9380270E+05  0.5564702E+03
  0.1270000E+02  0.5648471E+05  0.5490116E+03 -0.1939146E-02  0.4292617E-02  0.9380270E+05  0.4449324E+03
  0.1280000E+02  0.5648471E+05  0.2094453E+03 -0.1939146E-02  0.4015711E-02  0.9380270E+05  0.3052065E+03
  0.1290000E+02  0.5648471E+05 -0.1403986E+03 -0.1939146E-02  0.3524802E-02  0.9380270E+05  0.1466699E+03
  0.1300000E+02  0.5648471E+05 -0.4688629E+03 -0.1939146E-02  0.2839890E-02  0.9380270E+05 -0.1954754E+02
  0.1310000E+02  0.5648471E+05 -0.7465090E+03 -0.1939146E-02  0.1994461E-02  0.9380270E+05 -0.1810637E+03
  0.1320000E+02  0.5648471E+05 -0.9494061E+03 -0.1939146E-02  0.1033638E-02  0.9380270E+05 -0.3259740E+03
  0.1330000E+02  0.5648471E+05 -0.1061099E+04 -0.1939146E-02  0.1129666E-04  0.9380270E+05 -0.4436347E+03
  0.1340000E+02  0.5648471E+05 -0.1074206E+04 -0.1939146E-02 -0.1013374E-02  0.9380270E+05 -0.5258004E+03
  0.1350000E+02  0.5648471E+05 -0.9909406E+03 -0.1939146E-02 -0.1979860E-02  0.9380270E+05 -0.5673738E+03
  0.1360000E+02  0.5648471E+05 -0.8227105E+03 -0.1939146E-02 -0.2830512E-02  0.9380270E+05 -0.5668102E+03
  0.1370000E+02  0.5648471E+05 -0.5887219E+03 -0.1939146E-02 -0.3514551E-02  0.9380270E+05 -0.5261776E+03
  0.1380000E+02  0.5648471E+05 -0.3141183E+03 -0.1939146E-02 -0.3991758E-02  0.9380270E+05 -0.4511290E+03
  0.1390000E+02  0.5648471E+05 -0.2714960E+02 -0.1939146E-02 -0.4235392E-02  0.9380270E+05 -0.3499994E+03
  0.1400000E+02  0.5648471E+05  0.2435945E+03 -0.1939146E-02 -0.4234247E-02  0.9380270E+05 -0.2331547E+03
  0.1410000E+02  0.5648471E+05  0.4720709E+03 -0.1939146E-02 -0.3993600E-02  0.9380270E+05 -0.1118352E+03
  0.1420000E+02  0.5648471E+05  0.6371000E+03 -0.1939146E-02 -0.3534954E-02  0.9380270E+05  0.2683136E+01
  0.1430000E+02  0.5648471E+05  0.7245884E+03 -0.1939146E-02 -0.2894614E-02  0.9380270E+05  0.1003983E+03
  0.1440000E+02  0.5648471E+05  0.7286063E+03 -0.1939146E-02 -0.2121151E-02  0.9380270E+05  0.1733802E+03
  0.1450000E+02  0.5648471E+05  0.6518430E+03 -0.1939146E-02 -0.1271913E-02  0.9380270E+05  0.2165163E+03
  0.1460000E+02  0.5648471E+05  0.5049418E+03 -0.1939146E-02 -0.4088532E-03  0.9380270E+05  0.2276953E+03
  0.1470000E+02  0.5648471E+05  0.3057125E+03 -0.1939146E-02  0.4060117E-03  0.9380270E+05  0.2084802E+03
  0.1480000E+02  0.5648471E+05  0.7635668E+02 -0.1939146E-02  0.1115265E-02  0.9380270E+05  0.1629238E+03
  0.1490000E+02  0.5648471E+05 -0.1579798E+03 -0.1939146E-02  0.1670322E-02  0.9380270E+05  0.9800805E+02
  0.1500000E+02  0.5648471E+05 -0.3725352E+03 -0.1939146E-02  0.2035168E-02  0.9380270E+05  0.2216594E+02
  0.1510000E+02  0.5648471E+05 -0.5449434E+03 -0.1939146E-02  0.2189086E-02  0.9380270E+05 -0.5516562E+02
  0.1520000E+02  0.5648471E+05 -0.6578070E+03 -0.1939146E-02  0.2128220E-02  0.9380270E+05 -0.1249373E+03
  0.1530000E+02  0.5648471E+05 -0.7000422E+03 -0.1939146E-02  0.1865910E-02  0.9380270E+05 -0.1789706E+03
  0.1540000E+02  0.5648471E+05 -0.6681722E+03 -0.1939146E-02  0.1431631E-02  0.9380270E+05 -0.2112168E+03
  0.1550000E+02  0.5648471E+05 -0.5661744E+03 -0.1939146E-02  0.8687018E-03  0.9380270E+05 -0.2178160E+03
  0.1560000E+02  0.5648471E+05 -0.4051534E+03 -0.1939146E-02  0.2308479E-03  0.9380270E+05 -0.1978410E+03
  0.1570000E+02  0.5648471E+05 -0.2023510E+03 -0.1939146E-02 -0.4220356E-03  0.9380270E+05 -0.1534649E+03
  0.1580000E+02  0.5648471E+05  0.2139935E+02 -0.1939146E-02 -0.1028720E-02  0.9380270E+05 -0.8903316E+02
  0.1590000E+02  0.5648471E+05  0.2432252E+03 -0.1939146E-02 -0.1531552E-02  0.9380270E+05 -0.1124859E+02
Zone t="DoF    2",I=   160,F=POINT
  0.0000000E+00 -0.2387436E-02  0.5186218E-02  0.7281964E+05  0.2542774E+05 -0.5445785E-02  0.8570843E-02
  0.1000000E+00 -0.2387436E-02  0.4981190E-02  0.7281964E+05  0.2470437E+05 -0.5445785E-02  0.8234474E-02
  0.2000000E+00 -0.2387436E-02  0.4381544E-02  0.7281964E+05  0.2258769E+05 -0.5445785E-02  0.7250683E-02
  0.3000000E+00 -0.2387436E-02  0.3432377E-02  0.7281964E+05  0.1923374E+05 -0.5445785E-02  0.5693424E-02
  0.4000000E+00 -0.2387436E-02  0.2204871E-02  0.7281964E+05  0.1488876E+05 -0.5445785E-02  0.3679438E-02
  0.5000000E+00 -0.2387436E-02  0.7906888E-03  0.7281964E+05  0.9869680E+04 -0.5445785E-02  0.1359047E-02
  0.6000000E+00 -0.2387436E-02 -0.7052292E-03  0.7281964E+05  0.4539128E+04 -0.5445785E-02 -0.1095646E-02
  0.7000000E+00 -0.2387436E-02 -0.2172836E-02  0.7281964E+05 -0.7230605E+03 -0.5445785E-02 -0.3504162E-02
  0.8000000E+00 -0.2387436E-02 -0.3505478E-02  0.7281964E+05 -0.5549419E+04 -0.5445785E-02 -0.5691599E-02
  0.9000000E+00 -0.2387436E-02 -0.4607993E-02  0.7281964E+05 -0.9613092E+04 -0.5445785E-02 -0.7501928E-02
  0.1000000E+01 -0.2387436E-02 -0.5403798E-02  0.7281964E+05 -0.1265254E+05 -0.5445785E-02 -0.8809629E-02
  0.1100000E+01 -0.2387436E-02 -0.5840357E-02  0.7281964E+05 -0.1449064E+05 -0.5445785E-02 -0.9528691E-02
  0.1200000E+01 -0.2387436E-02 -0.5892653E-02  0.7281964E+05 -0.1504681E+05 -0.5445785E-02 -0.9618322E-02
  0.1300000E+01 -0.2387436E-02 -0.5564377E-02  0.7281964E+05 -0.1434116E+05 -0.5445785E-02 -0.9084949E-02
  0.1400000E+01 -0.2387436E-02 -0.4886836E-02  0.7281964E+05 -0.1249049E+05 -0.5445785E-02 -0.7980425E-02
  0.1500000E+01 -0.2387436E-02 -0.3915666E-02  0.7281964E+05 -0.9696731E+04 -0.5445785E-02 -0.6396647E-02
  0.1600000E+01 -0.2387436E-02 -0.2725716E-02  0.7281964E+05 -0.6228662E+04 -0.5445785E-02 -0.4457185E-02
  0.1700000E+01 -0.2387436E-02 -0.1404564E-02  0.7281964E+05 -0.2398786E+04 -0.5445785E-02 -0.2306593E-02
  0.1800000E+01 -0.2387436E-02 -0.4522332E-04  0.7281964E+05  0.1462795E+04 -0.5445785E-02 -0.9841446E-04
  0.1900000E+01 -0.2387436E-02  0.1261300E-02  0.7281964E+05  0.5035235E+04 -0.5445785E-02  0.2017104E-02
  0.2000000E+01 -0.2387436E-02  0.2432991E-02  0.7281964E+05  0.8032304E+04 -0.5445785E-02  0.3904571E-02
  0.2100000E+01 -0.2387436E-02  0.3402774E-02  0.7281964E+05  0.1022419E+05 -0.5445785E-02  0.5453312E-02
  0.2200000E+01 -0.2387436E-02  0.4122953E-02  0.7281964E+05  0.1145406E+05 -0.5445785E-02  0.6584793E-02
  0.2300000E+01 -0.2387436E-02  0.4567847E-02  0.7281964E+05  0.1164819E+05 -0.5445785E-02  0.7257073E-02
  0.2400000E+01 -0.2387436E-02  0.4734421E-02  0.7281964E+05  0.1081886E+05 -0.5445785E-02  0.7465960E-02
  0.2500000E+01 -0.2387436E-02  0.4640989E-02  0.7281964E+05  0.9060186E+04 -0.5445785E-02  0.7242980E-02
  0.2600000E+01 -0.2387436E-02  0.4324149E-02  0.7281964E+05  0.6537337E+04 -0.5445785E-02  0.6650425E-02
  0.2700000E+01 -0.2387436E-02  0.3834304E-02  0.7281964E+05  0.3470290E+04 -0.5445785E-02  0.5774003E-02
  0.2800000E+01 -0.2387436E-02  0.3230237E-02  0.7281964E+05  0.1136351E+03 -0.5445785E-02  0.4713908E-02
  0.2900000E+01 -0.2387436E-02  0.2573256E-02  0.7281964E+05 -0.3265675E+04 -0.5445785E-02  0.3575088E-02
  0.3000000E+01 -0.2387436E-02  0.1921471E-02  0.7281964E+05 -0.6410671E+04 -0.5445785E-02  0.2457679E-02
  0.3100000E+01 -0.2387436E-02  0.1324697E-02  0.7281964E+05 -0.9095053E+04 -0.5445785E-02  0.1448393E-02
  0.3200000E+01 -0.2387436E-02  0.8204669E-03  0.7281964E+05 -0.1114029E+05 -0.5445785E-02  0.6136620E-03
  0.3300000E+01 -0.2387436E-02  0.4314310E-03  0.7281964E+05 -0.1242808E+05 -0.5445785E-02 -0.4975640E-05
  0.3400000E+01 -0.2387436E-02  0.1643662E-03  0.7281964E+05 -0.1290701E+05 -0.5445785E-02 -0.3928672E-03
  0.3500000E+01 -0.2387436E-02  0.1080678E-04  0.7281964E+05 -0.1259337E+05 -0.5445785E-02 -0.5615809E-03
  0.3600000E+01 -0.2387436E-02 -0.5083295E-04  0.7281964E+05 -0.1156602E+05 -0.5445785E-02 -0.5457556E-03
  0.3700000E+01 -0.2387436E-02 -0.5189602E-04  0.7281964E+05 -0.9956317E+04 -0.5445785E-02 -0.3978496E-03
  0.3800000E+01 -0.2387436E-02 -0.2926520E-04  0.7281964E+05 -0.7933848E+04 -0.5445785E-02 -0.1813950E-03
  0.3900000E+01 -0.2387436E-02 -0.2072906E-04  0.7281964E+05 -0.5689711E+04 -0.5445785E-02  0.3654158E-04
  0.4000000E+01 -0.2387436E-02 -0.6041249E-04  0.7281964E+05 -0.3418813E+04 -0.5445785E-02  0.1929308E-03
  0.4100000E+01 -0.2387436E-02 -0.1747291E-03  0.7281964E+05 -0.1302696E+04 -0.5445785E-02  0.2356455E-03
  0.4200000E+01 -0.2387436E-02 -0.3792465E-03  0.7281964E+05  0.5054225E+03 -0.5445785E-02  0.1289630E-03
  0.4300000E+01 -0.2387436E-02 -0.6767684E-03  0.7281964E+05  0.1892261E+04 -0.5445785E-02 -0.1427974E-03
  0.4400000E+01 -0.2387436E-02 -0.1056806E-02  0.7281964E+05  0.2791903E+04 -0.5445785E-02 -0.5737951E-03
  0.4500000E+01 -0.2387436E-02 -0.1496477E-02  0.7281964E+05  0.3188460E+04 -0.5445785E-02 -0.1137467E-02
  0.4600000E+01 -0.2387436E-02 -0.1962726E-02  0.7281964E+05  0.3114008E+04 -0.5445785E-02 -0.1789452E-02
  0.4700000E+01 -0.2387436E-02 -0.2415629E-02  0.7281964E+05  0.2642264E+04 -0.5445785E-02 -0.2472315E-02
  0.4800000E+01 -0.2387436E-02 -0.2812442E-02  0.7281964E+05  0.1878738E+04 -0.5445785E-02 -0.3121547E-02
  0.4900000E+01 -0.2387436E-02 -0.3112007E-02  0.7281964E+05  0.9484606E+03 -0.5445785E-02 -0.3672273E-02
  0.5000000E+01 -0.2387436E-02 -0.3279060E-02  0.7281964E+05 -0.1745855E+02 -0.5445785E-02 -0.4065949E-02
  0.5100000E+01 -0.2387436E-02 -0.3288000E-02  0.7281964E+05 -0.8950775E+03 -0.5445785E-02 -0.4256392E-02
  0.5200000E+01 -0.2387436E-02 -0.3125778E-02  0.7281964E+05 -0.1579473E+04 -0.5445785E-02 -0.4214574E-02
  0.5300000E+01 -0.2387436E-02 -0.2793603E-02  0.7281964E+05 -0.1994113E+04 -0.5445785E-02 -0.3931711E-02
  0.5400000E+01 -0.2387436E-02 -0.2307295E-02  0.7281964E+05 -0.2097000E+04 -0.5445785E-02 -0.3420370E-02
  0.5500000E+01 -0.2387436E-02 -0.1696237E-02  0.7281964E+05 -0.1883052E+04 -0.5445785E-02 -0.2713477E-02
  0.5600000E+01 -0.2387436E-02 -0.1001045E-02  0.7281964E+05 -0.1382774E+04 -0.5445785E-02 -0.1861391E-02
  0.5700000E+01 -0.2387436E-02 -0.2701345E-03  0.7281964E+05 -0.6573997E+03 -0.5445785E-02 -0.9272754E-03
  0.5800000E+01 -0.2387436E-02  0.4444556E-03  0.7281964E+05  0.2087925E+03 -0.5445785E-02  0.1868904E-04
  0.5900000E+01 -0.2387436E-02  0.1091627E-02  0.7281964E+05  0.1118172E+04 -0.5445785E-02  0.9057667E-03
  0.6000000E+01 -0.2387436E-02  0.1625745E-02  0.7281964E+05  0.1970459E+04 -0.5445785E-02  0.1669150E-02
  0.6100000E+01 -0.2387436E-02  0.2010655E-02  0.7281964E+05  0.2673222E+04 -0.5445785E-02  0.2255788E-02
  0.6200000E+01 -0.2387436E-02  0.2222894E-02  0.7281964E+05  0.3151291E+04 -0.5445785E-02  0.2629127E-02
  0.6300000E+01 -0.2387436E-02  0.2253722E-02  0.7281964E+05  0.3354060E+04 -0.5445785E-02  0.2772190E-02
  0.6400000E+01 -0.2387436E-02  0.2109858E-02  0.7281964E+05  0.3260166E+04 -0.5445785E-02  0.2688849E-02
  0.6500000E+01 -0.2387436E-02  0.1812799E-02  0.7281964E+05  0.2878983E+04 -0.5445785E-02  0.2403084E-02
  0.6600000E+01 -0.2387436E-02  0.1396818E-02  0.7281964E+05  0.2249059E+04 -0.5445785E-02  0.1956380E-02
  0.6700000E+01 -0.2387436E-02  0.9058193E-03  0.7281964E+05  0.1433623E+04 -0.5445785E-02  0.1403513E-02
  0.6800000E+01 -0.2387436E-02  0.3893588E-03  0.7281964E+05  0.5137620E+03 -0.5445785E-02  0.8071751E-03
  0.6900000E+01 -0.2387436E-02 -0.1018561E-03  0.7281964E+05 -0.4200833E+03 -0.5445785E-02  0.2318756E-03
  0.7000000E+01 -0.2387436E-02 -0.5205045E-03  0.7281964E+05 -0.1277323E+04 -0.5445785E-02 -0.2621906E-03
  0.7100000E+01 -0.2387436E-02 -0.8268505E-03  0.7281964E+05 -0.1976207E+04 -0.5445785E-02 -0.6247592E-03
  0.7200000E+01 -0.2387436E-02 -0.9922496E-03  0.7281964E+05 -0.2451816E+04 -0.5445785E-02 -0.8201330E-03
  0.7300000E+01 -0.2387436E-02 -0.1001579E-02  0.7281964E+05 -0.2662124E+04 -0.5445785E-02 -0.8302957E-03
  0.7400000E+01 -0.2387436E-02 -0.8544683E-03  0.7281964E+05 -0.2591753E+04 -0.5445785E-02 -0.6563477E-03
  0.7500000E+01 -0.2387436E-02 -0.5651555E-03  0.7281964E+05 -0.2252992E+04 -0.5445785E-02 -0.3180600E-03
  0.7600000E+01 -0.2387436E-02 -0.1610244E-03  0.7281964E+05 -0.1684053E+04 -0.5445785E-02  0.1483563E-03
  0.7700000E+01 -0.2387436E-02  0.3200184E-03  0.7281964E+05 -0.9448466E+03 -0.5445785E-02  0.6940088E-03
  0.7800000E+01 -0.2387436E-02  0.8330869E-03  0.7281964E+05 -0.1107457E+03 -0.5445785E-02  0.1262245E-02
  0.7900000E+01 -0.2387436E-02  0.1330477E-02  0.7281964E+05  0.7351021E+03 -0.5445785E-02  0.1794288E-02
  0.8000000E+01 -0.2387436E-02  0.1765997E-02  0.7281964E+05  0.1509966E+04 -0.5445785E-02  0.2234950E-02
  0.8100000E+01 -0.2387436E-02  0.2099154E-02  0.7281964E+05  0.2139615E+04 -0.5445785E-02  0.2537998E-02
  0.8200000E+01 -0.2387436E-02  0.2298716E-02  0.7281964E+05  0.2565280E+04 -0.5445785E-02  0.2670510E-02
  0.8300000E+01 -0.2387436E-02  0.2345460E-02  0.7281964E+05  0.2749076E+04 -0.5445785E-02  0.2615981E-02
  0.8400001E+01 -0.2387436E-02  0.2233727E-02  0.7281964E+05  0.2677196E+04 -0.5445785E-02  0.2375740E-02
  0.8500000E+01 -0.2387436E-02  0.1971796E-02  0.7281964E+05  0.2360758E+04 -0.5445785E-02  0.1968688E-02
  0.8600000E+01 -0.2387436E-02  0.1580914E-02  0.7281964E+05  0.1834160E+04 -0.5445785E-02  0.1429260E-02
  0.8700000E+01 -0.2387436E-02  0.1093247E-02  0.7281964E+05  0.1151295E+04 -0.5445785E-02  0.8040206E-03
  0.8800000E+01 -0.2387436E-02  0.5487839E-03  0.7281964E+05  0.3798752E+03 -0.5445785E-02  0.1469778E-03
  0.8900001E+01 -0.2387436E-02 -0.8352677E-05  0.7281964E+05 -0.4053294E+03 -0.5445785E-02 -0.4856604E-03
  0.9000000E+01 -0.2387436E-02 -0.5339712E-03  0.7281964E+05 -0.1129917E+04 -0.5445785E-02 -0.1041001E-02
  0.9100000E+01 -0.2387436E-02 -0.9878239E-03  0.7281964E+05 -0.1726948E+04 -0.5445785E-02 -0.1474588E-02
  0.9200000E+01 -0.2387436E-02 -0.1337152E-02  0.7281964E+05 -0.2143166E+04 -0.5445785E-02 -0.1754641E-02
  0.9300000E+01 -0.2387436E-02 -0.1559569E-02  0.7281964E+05 -0.2343845E+04 -0.5445785E-02 -0.1865117E-02
  0.9400001E+01 -0.2387436E-02 -0.1644892E-02  0.7281964E+05 -0.2315566E+04 -0.5445785E-02 -0.1807158E-02
  0.9500000E+01 -0.2387436E-02 -0.1595881E-02  0.7281964E+05 -0.2067038E+04 -0.5445785E-02 -0.1598927E-02
  0.9600000E+01 -0.2387436E-02 -0.1427733E-02  0.7281964E+05 -0.1627628E+04 -0.5445785E-02 -0.1273719E-02
  0.9700000E+01 -0.2387436E-02 -0.1166484E-02  0.7281964E+05 -0.1044037E+04 -0.5445785E-02 -0.8766836E-03
  0.9800000E+01 -0.2387436E-02 -0.8463726E-03  0.7281964E+05 -0.3753333E+03 -0.5445785E-02 -0.4602865E-03
  0.9900001E+01 -0.2387436E-02 -0.5065424E-03  0.7281964E+05  0.3130046E+03 -0.5445785E-02 -0.7914726E-04
  0.1000000E+02 -0.2387436E-02 -0.1872490E-03  0.7281964E+05  0.9555621E+03 -0.5445785E-02  0.2154477E-03
  0.1010000E+02 -0.2387436E-02  0.7397200E-04  0.7281964E+05  0.1493258E+04 -0.5445785E-02  0.3807147E-03
  0.1020000E+02 -0.2387436E-02  0.2458620E-03  0.7281964E+05  0.1878764E+04 -0.5445785E-02  0.3867645E-03
  0.1030000E+02 -0.2387436E-02  0.3064359E-03  0.7281964E+05  0.2080720E+04 -0.5445785E-02  0.2198419E-03
  0.1040000E+02 -0.2387436E-02  0.2450737E-03  0.7281964E+05  0.2086195E+04 -0.5445785E-02 -0.1159697E-03
  0.1050000E+02 -0.2387436E-02  0.6363009E-04  0.7281964E+05  0.1901401E+04 -0.5445785E-02 -0.5986385E-03
  0.1060000E+02 -0.2387436E-02 -0.2236603E-03  0.7281964E+05  0.1550395E+04 -0.5445785E-02 -0.1189851E-02
  0.1070000E+02 -0.2387436E-02 -0.5913398E-03  0.7281964E+05  0.1072238E+04 -0.5445785E-02 -0.1838115E-02
  0.1080000E+02 -0.2387436E-02 -0.1004940E-02  0.7281964E+05  0.5166791E+03 -0.5445785E-02 -0.2483200E-02
  0.1090000E+02 -0.2387436E-02 -0.1423989E-02  0.7281964E+05 -0.6095385E+02 -0.5445785E-02 -0.3061397E-02
  0.1100000E+02 -0.2387436E-02 -0.1805572E-02  0.7281964E+05 -0.6053333E+03 -0.5445785E-02 -0.3511215E-02
  0.1110000E+02 -0.2387436E-02 -0.2108162E-02  0.7281964E+05 -0.1066469E+04 -0.5445785E-02 -0.3778975E-02
  0.1120000E+02 -0.2387436E-02 -0.2295276E-02  0.7281964E+05 -0.1404314E+04 -0.5445785E-02 -0.3823738E-02
  0.1130000E+02 -0.2387436E-02 -0.2338822E-02  0.7281964E+05 -0.1592343E+04 -0.5445785E-02 -0.3621300E-02
  0.1140000E+02 -0.2387436E-02 -0.2221646E-02  0.7281964E+05 -0.1619537E+04 -0.5445785E-02 -0.3166665E-02
  0.1150000E+02 -0.2387436E-02 -0.1939271E-02  0.7281964E+05 -0.1490931E+04 -0.5445785E-02 -0.2475048E-02
  0.1160000E+02 -0.2387436E-02 -0.1500471E-02  0.7281964E+05 -0.1226407E+04 -0.5445785E-02 -0.1581006E-02
  0.1170000E+02 -0.2387436E-02 -0.9268748E-03  0.7281964E+05 -0.8582387E+03 -0.5445785E-02 -0.5361343E-03