VARIABLES="w (rad/s)"
"A   1   1" "B   1   1"
"A   1   2" "B   1   2"
"A   1   3" "B   1   3"
Zone t="Motion of body    1 in DoF   1",I=    32,F=POINT
  0.1000000E+00  0.5968662E+03  0.1120708E-06  0.3109872E-03  0.7370330E-07  0.2197204E+04  0.4376245E-06
  0.2000000E+00  0.5973854E+03  0.1514013E-04  0.1493096E-03  0.3669313E-06  0.2199218E+04  0.5701440E-04
  0.3000000E+00  0.5970264E+03  0.2540576E-03 -0.1498560E-03 -0.8063082E-06  0.2196829E+04  0.9589873E-03
  0.4000000E+00  0.6004115E+03  0.1894981E-02  0.1545250E-03  0.3363310E-05  0.2209975E+04  0.7152535E-02
  0.5000000E+00  0.6017647E+03  0.8947543E-02 -0.1903176E-03 -0.6545866E-05  0.2214865E+04  0.3378065E-01
  0.6000001E+00  0.6019717E+03  0.3169623E-01 -0.5314747E-05  0.6004939E-06  0.2215343E+04  0.1196893E+00
  0.7000000E+00  0.6054425E+03  0.9211562E-01 -0.1452650E-03 -0.1977147E-04  0.2228904E+04  0.3479485E+00
  0.8000001E+00  0.6081780E+03  0.2310836E+00 -0.8195638E-06  0.3671797E-05  0.2239765E+04  0.8731961E+00
  0.9000000E+00  0.6116241E+03  0.5181158E+00 -0.7898278E-03 -0.1520460E-03  0.2252480E+04  0.1958422E+01
  0.1000000E+01  0.6156165E+03  0.1062375E+01 -0.1067758E-02 -0.2729292E-03  0.2268219E+04  0.4017503E+01
  0.1100000E+01  0.6193661E+03  0.2025412E+01 -0.4689260E-03 -0.1435929E-03  0.2282476E+04  0.7662704E+01
  0.1200000E+01  0.6240790E+03  0.3634414E+01  0.1068612E-02  0.3846104E-03  0.2300413E+04  0.1375641E+02
  0.1300000E+01  0.6303713E+03  0.6195630E+01 -0.2642320E-03 -0.2388898E-03  0.2325121E+04  0.2346437E+02
  0.1400000E+01  0.6364396E+03  0.1010346E+02  0.1376867E-03  0.9485940E-04  0.2347905E+04  0.3828403E+02
  0.1500000E+01  0.6426744E+03  0.1584091E+02 -0.6136100E-03 -0.3295597E-03  0.2372039E+04  0.6006015E+02
  0.1600000E+01  0.6508377E+03  0.2399174E+02  0.6882846E-03  0.5486049E-03  0.2403588E+04  0.9102070E+02
  0.1700000E+01  0.6585654E+03  0.3522605E+02 -0.4371475E-03 -0.4260093E-03  0.2433436E+04  0.1337331E+03
  0.1800000E+01  0.6668463E+03  0.5026241E+02 -0.1696083E-03 -0.1760330E-03  0.2464979E+04  0.1909409E+03
  0.1900000E+01  0.6738474E+03  0.6981216E+02  0.2756244E-03  0.2853572E-03  0.2492269E+04  0.2653943E+03
  0.2000000E+01  0.6819631E+03  0.9456956E+02  0.1231432E-03  0.2988987E-03  0.2524052E+04  0.3597744E+03
  0.2100000E+01  0.6894413E+03  0.1251865E+03  0.1135327E-03 -0.5324185E-04  0.2552998E+04  0.4766155E+03
  0.2200000E+01  0.6945142E+03  0.1621770E+03  0.1124902E-03  0.2522692E-03  0.2572820E+04  0.6179603E+03
  0.2300000E+01  0.6984809E+03  0.2056112E+03  0.1757041E-04  0.5513430E-06  0.2588546E+04  0.7840938E+03
  0.2400000E+01  0.7005772E+03  0.2553405E+03  0.1800060E-03  0.3586560E-03  0.2597052E+04  0.9745366E+03
  0.2500000E+01  0.7000560E+03  0.3110003E+03  0.4768372E-04  0.2664328E-04  0.2595848E+04  0.1188001E+04
  0.2600000E+01  0.6974821E+03  0.3715434E+03  0.6235563E-05  0.3083795E-03  0.2586896E+04  0.1420485E+04
  0.2700000E+01  0.6928881E+03  0.4358639E+03 -0.1130722E-03 -0.5660802E-03  0.2570054E+04  0.1667871E+04
  0.2800000E+01  0.6858237E+03  0.5026606E+03 -0.4027571E-04 -0.2804399E-03  0.2543558E+04  0.1925183E+04
  0.2900000E+01  0.6761063E+03  0.5703857E+03 -0.4176436E-04 -0.6079078E-03  0.2507138E+04  0.2186512E+04
  0.3000000E+01  0.6643096E+03  0.6377491E+03  0.7502238E-04  0.1194775E-03  0.2462697E+04  0.2447002E+04
  0.3100000E+01  0.6511625E+03  0.7028215E+03  0.9544435E-04  0.4794002E-03  0.2412905E+04  0.2699157E+04
  0.3200000E+01  0.6367092E+03  0.7647640E+03 -0.4023314E-04  0.1542866E-03  0.2357792E+04  0.2939613E+04
Zone t="Motion of body    1 in DoF   2",I=    32,F=POINT
  0.1000000E+00  0.1099706E-03 -0.5820766E-08  0.3581299E+04  0.1055090E+01  0.1478195E-03  0.3026798E-08
  0.2000000E+00  0.1123548E-03  0.7729977E-07  0.3617971E+04  0.8383143E+01  0.2777576E-03  0.1750886E-06
  0.3000000E+00 -0.4529953E-04  0.7376075E-06  0.3662206E+04  0.2796634E+02 -0.1986821E-05 -0.3837049E-06
  0.4000000E+00  0.1537800E-03  0.2570450E-06  0.3706061E+04  0.6519995E+02 -0.8940697E-05 -0.5908310E-05
  0.5000000E+00  0.1213551E-03  0.2235174E-06  0.3742937E+04  0.1246035E+03  0.4568100E-03 -0.5990267E-05
  0.6000001E+00  0.9497006E-04 -0.1668930E-05  0.3770433E+04  0.2095650E+03  0.2141793E-03  0.2297759E-04
  0.7000000E+00  0.1226153E-04 -0.1639128E-06  0.3786605E+04  0.3221420E+03 -0.3065382E-04 -0.1651049E-04
  0.8000001E+00  0.1260638E-03 -0.5066395E-06  0.3788545E+04  0.4629755E+03 -0.1192093E-05  0.3027916E-04
  0.9000000E+00 -0.2386835E-03  0.2771616E-04  0.3775576E+04  0.6312285E+03 -0.9679794E-03  0.5245209E-04
  0.1000000E+01 -0.1757145E-03 -0.8463860E-05  0.3746504E+04  0.8248536E+03 -0.6246567E-03  0.1907349E-05
  0.1100000E+01 -0.3056092E-04  0.8881092E-05  0.3701089E+04  0.1040634E+04 -0.1582232E-03 -0.1251698E-04
  0.1200000E+01  0.4897515E-03  0.3039837E-04  0.3643545E+04  0.1274355E+04  0.1683235E-02  0.1344681E-03
  0.1300000E+01  0.1454353E-03 -0.2181530E-04  0.3570399E+04  0.1522014E+04  0.1261784E-03 -0.3123283E-04
  0.1400000E+01  0.1221044E-03 -0.2408028E-04  0.3488098E+04  0.1778059E+04  0.2200263E-03  0.2360344E-04
  0.1500000E+01 -0.2142588E-03  0.3099442E-05  0.3397885E+04  0.2038081E+04 -0.7921855E-03 -0.1275539E-03
  0.1600000E+01  0.3808737E-03  0.3457069E-05  0.3299010E+04  0.2298400E+04  0.1402497E-02 -0.1883507E-04
  0.1700000E+01 -0.1381425E-03  0.6556511E-05  0.3195695E+04  0.2554312E+04 -0.7163777E-03 -0.1015663E-03
  0.1800000E+01 -0.7192294E-04 -0.2276897E-04  0.3090908E+04  0.2801737E+04 -0.2717972E-03 -0.1063347E-03
  0.1900000E+01  0.1720378E-03 -0.1049042E-04  0.2984498E+04  0.3039263E+04  0.2098083E-03 -0.1087189E-03
  0.2000000E+01  0.3111362E-04  0.3075600E-04  0.2877877E+04  0.3264838E+04 -0.1907349E-04  0.2408028E-03
  0.2100000E+01  0.6425949E-04 -0.5340576E-04  0.2772952E+04  0.3475852E+04  0.1198905E-03 -0.1492500E-03
  0.2200000E+01  0.5808743E-04 -0.6198883E-04  0.2670679E+04  0.3670753E+04  0.2973730E-03 -0.2002716E-03
  0.2300000E+01 -0.5970831E-04  0.2384186E-05  0.2572527E+04  0.3848559E+04 -0.1559050E-03  0.6294250E-04
  0.2400000E+01  0.1547734E-03  0.1502037E-04  0.2478523E+04  0.4009075E+04  0.3012021E-03 -0.2617836E-03
  0.2500000E+01  0.7038117E-04  0.5197525E-04  0.2388190E+04  0.4154241E+04  0.2185822E-03 -0.1754761E-03
  0.2600000E+01  0.3576279E-04  0.5245209E-05  0.2302590E+04  0.4283284E+04  0.3678982E-03 -0.3929138E-03
  0.2700000E+01 -0.1596521E-03 -0.1258850E-03  0.2221716E+04  0.4395313E+04 -0.5188694E-03 -0.4849434E-03
  0.2800000E+01 -0.8753368E-04 -0.7557869E-04  0.2145344E+04  0.4493354E+04 -0.3300394E-03 -0.9012222E-04
  0.2900000E+01  0.2482842E-04 -0.4148483E-04  0.2073504E+04  0.4578300E+04  0.2078352E-03  0.4148483E-04
  0.3000000E+01  0.3973643E-04  0.7987022E-04  0.2006488E+04  0.4648988E+04  0.2285639E-03  0.2646446E-03
  0.3100000E+01  0.1924269E-03  0.2472401E-03  0.1943866E+04  0.4705609E+04  0.5989690E-03  0.1191139E-02
  0.3200000E+01  0.2428889E-04  0.2543926E-03  0.1885793E+04  0.4751101E+04  0.5692244E-04  0.9317398E-03
Zone t="Motion of body    1 in DoF   3",I=    32,F=POINT
  0.1000000E+00  0.2194121E+04  0.4678759E-06  0.4073977E-03  0.1523432E-06  0.8157014E+04  0.1829394E-05
  0.2000000E+00  0.2196137E+04  0.5701950E-04  0.1524389E-03  0.5467346E-06  0.8164856E+04  0.2147259E-03
  0.3000000E+00  0.2193596E+04  0.9565974E-03 -0.6616116E-03 -0.4033975E-05  0.8151567E+04  0.3610356E-02
  0.4000000E+00  0.2206923E+04  0.7133247E-02  0.2560019E-03  0.1790231E-05  0.8203786E+04  0.2692429E-01
  0.5000000E+00  0.2211800E+04  0.3369420E-01 -0.1352787E-02 -0.3647964E-04  0.8221470E+04  0.1272099E+00
  0.6000001E+00  0.2212094E+04  0.1193835E+00  0.9000300E-04 -0.1311258E-04  0.8221118E+04  0.4508084E+00
  0.7000000E+00  0.2225559E+04  0.3470524E+00 -0.9652547E-03 -0.9216879E-04  0.8273594E+04  0.1310917E+01
  0.8000001E+00  0.2236693E+04  0.8709037E+00  0.4278123E-03  0.5476858E-04  0.8318089E+04  0.3290884E+01
  0.9000000E+00  0.2249102E+04  0.1953479E+01 -0.3527271E-02 -0.6683710E-03  0.8363537E+04  0.7383944E+01
  0.1000000E+01  0.2265080E+04  0.4007173E+01 -0.4254580E-02 -0.1141941E-02  0.8426739E+04  0.1515362E+02
  0.1100000E+01  0.2279030E+04  0.7643473E+01 -0.1424443E-02 -0.3898907E-03  0.8479378E+04  0.2891741E+02
  0.1200000E+01  0.2297079E+04  0.1372236E+02  0.3094872E-02  0.1251701E-02  0.8548398E+04  0.5193967E+02
  0.1300000E+01  0.2321828E+04  0.2340500E+02 -0.1632434E-02 -0.1049797E-02  0.8645519E+04  0.8864045E+02
  0.1400000E+01  0.2344304E+04  0.3819225E+02  0.1045806E-02  0.6961022E-03  0.8729606E+04  0.1447182E+03
  0.1500000E+01  0.2368514E+04  0.5991533E+02 -0.1971722E-02 -0.1163587E-02  0.8823425E+04  0.2271661E+03
  0.1600000E+01  0.2400136E+04  0.9080089E+02  0.2253354E-02  0.1824100E-02  0.8945928E+04  0.3444832E+03
  0.1700000E+01  0.2429749E+04  0.1334183E+03 -0.9995349E-03 -0.1160130E-02  0.9059992E+04  0.5065140E+03
  0.1800000E+01  0.2461172E+04  0.1905128E+03 -0.1299381E-03 -0.4170164E-03  0.9179637E+04  0.7237363E+03
  0.1900000E+01  0.2488514E+04  0.2647906E+03  0.5975523E-03  0.8402169E-03  0.9286319E+04  0.1006610E+04
  0.2000000E+01  0.2520316E+04  0.3589436E+03  0.3607273E-03  0.9195358E-03  0.9410905E+04  0.1365538E+04
  0.2100000E+01  0.2549200E+04  0.4755686E+03  0.2066294E-03 -0.4911423E-04  0.9522743E+04  0.1810609E+04
  0.2200000E+01  0.2568809E+04  0.6166895E+03 -0.6285581E-05 -0.2222955E-03  0.9599037E+04  0.2349860E+04
  0.2300000E+01  0.2584509E+04  0.7825158E+03 -0.2125035E-03 -0.1882017E-03  0.9661222E+04  0.2984128E+04
  0.2400000E+01  0.2593142E+04  0.9726395E+03  0.5408128E-03  0.8261204E-03  0.9696320E+04  0.3712207E+04
  0.2500000E+01  0.2591968E+04  0.1185751E+04  0.4062653E-03  0.4174709E-03  0.9694900E+04  0.4529525E+04
  0.2600000E+01  0.2583068E+04  0.1417832E+04  0.2219127E-04 -0.4272461E-03  0.9664282E+04  0.5420674E+04
  0.2700000E+01  0.2566328E+04  0.1664855E+04 -0.4835482E-03 -0.2681851E-02  0.9603086E+04  0.6370689E+04
  0.2800000E+01  0.2539911E+04  0.1921974E+04 -0.1842635E-03 -0.2087057E-02  0.9504080E+04  0.7361131E+04
  0.2900000E+01  0.2503552E+04  0.2182989E+04 -0.2006005E-04 -0.8417368E-03  0.9367836E+04  0.8368221E+04
  0.3000000E+01  0.2459160E+04  0.2443097E+04  0.4488627E-03 -0.6914139E-05  0.9200688E+04  0.9373927E+04
  0.3100000E+01  0.2409484E+04  0.2695031E+04  0.4516109E-03  0.2293110E-02  0.9012658E+04  0.1035012E+05
  0.3200000E+01  0.2354570E+04  0.2935502E+04  0.2074242E-03 -0.3654957E-03  0.8803451E+04  0.1128348E+05
