VARIABLES="w (rad/s)"
"abs(F   1   1)" "angle(F   1   1)"
"abs(F   1   2)" "angle(F   1   2)"
"abs(F   1   3)" "angle(F   1   3)"
Zone t="FKforce - beta =   0.000",I=    32,F=POINT
  0.1000000E+00  0.2137462E+04 -0.1570798E+01  0.4329014E+05  0.1730546E-09  0.1111185E+04  0.1570801E+01
  0.2000000E+00  0.8458079E+04 -0.1570797E+01  0.3697013E+05  0.6254476E-09  0.4409819E+04  0.1570799E+01
  0.3000000E+00  0.1869131E+05 -0.1570796E+01  0.2673592E+05  0.3782151E-08  0.9792278E+04  0.1570796E+01
  0.4000000E+00  0.3240163E+05 -0.1570796E+01  0.1302403E+05 -0.1041557E-07  0.1708982E+05  0.1570796E+01
  0.5000000E+00  0.4901062E+05 -0.1570796E+01  0.3588720E+04 -0.3141593E+01  0.2607401E+05  0.1570796E+01
  0.6000001E+00  0.6782645E+05 -0.1570796E+01  0.2240921E+05 -0.3141593E+01  0.3646419E+05  0.1570796E+01
  0.7000000E+00  0.8807704E+05 -0.1570796E+01  0.4266890E+05 -0.3141593E+01  0.4793570E+05  0.1570796E+01
  0.8000001E+00  0.1089494E+06 -0.1570796E+01  0.6355420E+05  0.3141593E+01  0.6013014E+05  0.1570796E+01
  0.9000000E+00  0.1296263E+06 -0.1570796E+01  0.8425071E+05 -0.3141593E+01  0.7266477E+05  0.1570796E+01
  0.1000000E+01  0.1493245E+06 -0.1570796E+01  0.1039755E+06 -0.3141593E+01  0.8514416E+05  0.1570796E+01
  0.1100000E+01  0.1673298E+06 -0.1570796E+01  0.1220163E+06 -0.3141593E+01  0.9717009E+05  0.1570796E+01
  0.1200000E+01  0.1830265E+06 -0.1570796E+01  0.1377584E+06 -0.3141593E+01  0.1083534E+06  0.1570796E+01
  0.1300000E+01  0.1959175E+06 -0.1570796E+01  0.1507075E+06 -0.3141593E+01  0.1183270E+06  0.1570796E+01
  0.1400000E+01  0.2056470E+06 -0.1570796E+01  0.1605095E+06  0.3141593E+01  0.1267548E+06  0.1570796E+01
  0.1500000E+01  0.2120009E+06 -0.1570796E+01  0.1669537E+06 -0.3141593E+01  0.1333462E+06  0.1570796E+01
  0.1600000E+01  0.2149142E+06 -0.1570796E+01  0.1699768E+06 -0.3141593E+01  0.1378667E+06  0.1570796E+01
  0.1700000E+01  0.2144613E+06 -0.1570796E+01  0.1696565E+06 -0.3141593E+01  0.1401459E+06  0.1570796E+01
  0.1800000E+01  0.2108416E+06 -0.1570796E+01  0.1661950E+06  0.3141593E+01  0.1400904E+06  0.1570796E+01
  0.1900000E+01  0.2043617E+06 -0.1570796E+01  0.1599035E+06 -0.3141593E+01  0.1376850E+06  0.1570796E+01
  0.2000000E+01  0.1954133E+06 -0.1570796E+01  0.1511773E+06 -0.3141593E+01  0.1329990E+06  0.1570796E+01
  0.2100000E+01  0.1844466E+06 -0.1570796E+01  0.1404698E+06 -0.3141593E+01  0.1261834E+06  0.1570796E+01
  0.2200000E+01  0.1719442E+06 -0.1570796E+01  0.1282680E+06  0.3141593E+01  0.1174644E+06  0.1570796E+01
  0.2300000E+01  0.1583951E+06 -0.1570796E+01  0.1150663E+06  0.3141593E+01  0.1071357E+06  0.1570796E+01
  0.2400000E+01  0.1442719E+06 -0.1570796E+01  0.1013405E+06 -0.3141593E+01  0.9554298E+05  0.1570796E+01
  0.2500000E+01  0.1300100E+06 -0.1570796E+01  0.8753028E+05 -0.3141593E+01  0.8306773E+05  0.1570796E+01
  0.2600000E+01  0.1159919E+06 -0.1570796E+01  0.7402266E+05 -0.3141593E+01  0.7010856E+05  0.1570796E+01
  0.2700000E+01  0.1025356E+06 -0.1570796E+01  0.6113989E+05 -0.3141593E+01  0.5706064E+05  0.1570796E+01
  0.2800000E+01  0.8988917E+05 -0.1570796E+01  0.4913402E+05  0.3141593E+01  0.4429834E+05  0.1570796E+01
  0.2900000E+01  0.7822914E+05 -0.1570796E+01  0.3818437E+05  0.3141593E+01  0.3215719E+05  0.1570796E+01
  0.3000000E+01  0.6766215E+05 -0.1570796E+01  0.2840131E+05  0.3141593E+01  0.2092066E+05  0.1570796E+01
  0.3100000E+01  0.5823270E+05 -0.1570796E+01  0.1983228E+05  0.3141593E+01  0.1081100E+05  0.1570796E+01
  0.3200000E+01  0.4993176E+05 -0.1570796E+01  0.1247048E+05  0.3141593E+01  0.1984212E+04  0.1570797E+01
