VARIABLES="X" "Y" "Z" "NX" "NY" "NZ" "A"
 ZONE N=         980 , E=         245  , F=FEPOINT,ET=QUADRILATERAL
   0.1017709E+00   0.6533900E-02  -0.1000000E-01   0.0000000E+00   0.0000000E+00   0.0000000E+00   0.0000000E+00
   0.1115737E+00   0.7163300E-02   0.0000000E+00   0.0000000E+00   0.0000000E+00   0.0000000E+00   0.0000000E+00
   0.1019804E+00   0.0000000E+00  -0.1000000E-01   0.0000000E+00   0.0000000E+00   0.0000000E+00   0.0000000E+00
   0.1118034E+00   0.0000000E+00   0.0000000E+00   0.0000000E+00   0.0000000E+00   0.0000000E+00   0.0000000E+00
   0.1011431E+00   0.1304100E-01  -0.1000000E-01   0.0000000E+00   0.0000000E+00   0.0000000E+00   0.0000000E+00
   0.1108855E+00   0.1429710E-01   0.0000000E+00   0.0000000E+00   0.0000000E+00   0.0000000E+00   0.0000000E+00
   0.1017709E+00   0.6533900E-02  -0.1000000E-01   0.0000000E+00   0.0000000E+00   0.0000000E+00   0.0000000E+00
   0.1115737E+00   0.7163300E-02   0.0000000E+00   0.0000000E+00   0.0000000E+00   0.0000000E+00   0.0000000E+00
   0.1000998E+00   0.1949440E-01  -0.1000000E-01   0.0000000E+00   0.0000000E+00   0.0000000E+00   0.0000000E+00
   0.1097416E+00   0.2137220E-01   0.0000000E+00   0.0000000E+00   0.0000000E+00   0.0000000E+00   0.0000000E+00
   0.1011431E+00   0.1304100E-01  -0.1000000E-01   0.0000000E+00   0.0000000E+00   0.0000000E+00   0.0000000E+00
   0.1108855E+00   0.1429710E-01   0.0000000E+00   0.0000000E+00   0.0000000E+00   0.0000000E+00   0.0000000E+00
   0.9864510E-01   0.2586780E-01  -0.1000000E-01   0.0000000E+00   0.0000000E+00   0.0000000E+00   0.0000000E+00
   0.1081469E+00   0.2835940E-01   0.0000000E+00   0.0000000E+00   0.0000000E+00   0.0000000E+00   0.0000000E+00
   0.1000998E+00   0.1949440E-01  -0.1000000E-01   0.0000000E+00   0.0000000E+00   0.0000000E+00   0.0000000E+00
   0.1097416E+00   0.2137220E-01   0.0000000E+00   0.0000000E+00   0.0000000E+00   0.0000000E+00   0.0000000E+00
   0.9678510E-01   0.3213490E-01  -0.1000000E-01   0.0000000E+00   0.0000000E+00   0.0000000E+00   0.0000000E+00
   0.1061077E+00   0.3523020E-01   0.0000000E+00   0.0000000E+00   0.0000000E+00   0.0000000E+00   0.0000000E+00
   0.9864510E-01   0.2586780E-01  -0.1000000E-01   0.0000000E+00   0.0000000E+00   0.0000000E+00   0.0000000E+00
   0.1081469E+00   0.2835940E-01   0.0000000E+00   0.0000000E+00   0.0000000E+00   0.0000000E+00   0.0000000E+00
   0.9452730E-01   0.3826990E-01  -0.1000000E-01   0.0000000E+00   0.0000000E+00   0.0000000E+00   0.0000000E+00
   0.1036324E+00   0.4195610E-01   0.0000000E+00   0.0000000E+00   0.0000000E+00   0.0000000E+00   0.0000000E+00
   0.9678510E-01   0.3213490E-01  -0.1000000E-01   0.0000000E+00   0.0000000E+00   0.0000000E+00   0.0000000E+00
   0.1061077E+00   0.3523020E-01   0.0000000E+00   0.0000000E+00   0.0000000E+00   0.0000000E+00   0.0000000E+00
   0.9188120E-01   0.4424760E-01  -0.1000000E-01   0.0000000E+00   0.0000000E+00   0.0000000E+00   0.0000000E+00
   0.1007314E+00   0.4850970E-01   0.0000000E+00   0.0000000E+00   0.0000000E+00   0.0000000E+00   0.0000000E+00
   0.9452730E-01   0.3826990E-01  -0.1000000E-01   0.0000000E+00   0.0000000E+00   0.0000000E+00   0.0000000E+00
   0.1036324E+00   0.4195610E-01   0.0000000E+00   0.0000000E+00   0.0000000E+00   0.0000000E+00   0.0000000E+00
   0.8885740E-01   0.5004360E-01  -0.1000000E-01   0.0000000E+00   0.0000000E+00   0.0000000E+00   0.0000000E+00
   0.9741640E-01   0.5486390E-01   0.0000000E+00   0.0000000E+00   0.0000000E+00   0.0000000E+00   0.0000000E+00
   0.9188120E-01   0.4424760E-01  -0.1000000E-01   0.0000000E+00   0.0000000E+00   0.0000000E+00   0.0000000E+00
   0.1007314E+00   0.4850970E-01   0.0000000E+00   0.0000000E+00   0.0000000E+00   0.0000000E+00   0.0000000E+00
   0.8546860E-01   0.5563390E-01  -0.1000000E-01   0.0000000E+00   0.0000000E+00   0.0000000E+00   0.0000000E+00
   0.9370110E-01   0.6099270E-01   0.0000000E+00   0.0000000E+00   0.0000000E+00   0.0000000E+00   0.0000000E+00
   0.8885740E-01   0.5004360E-01  -0.1000000E-01   0.0000000E+00   0.0000000E+00   0.0000000E+00   0.0000000E+00
   0.9741640E-01   0.5486390E-01   0.0000000E+00   0.0000000E+00   0.0000000E+00   0.0000000E+00   0.0000000E+00
   0.8172850E-01   0.6099550E-01  -0.1000000E-01   0.0000000E+00   0.0000000E+00   0.0000000E+00   0.0000000E+00
   0.8960080E-01   0.6687080E-01   0.0000000E+00   0.0000000E+00   0.0000000E+00   0.0000000E+00   0.0000000E+00
   0.8546860E-01   0.5563390E-01  -0.1000000E-01   0.0000000E+00   0.0000000E+00   0.0000000E+00   0.0000000E+00
   0.9370110E-01   0.6099270E-01   0.0000000E+00   0.0000000E+00   0.0000000E+00   0.0000000E+00   0.0000000E+00
   0.7765260E-01   0.6610660E-01  -0.1000000E-01   0.0000000E+00   0.0000000E+00   0.0000000E+00   0.0000000E+00
   0.8513220E-01   0.7247410E-01   0.0000000E+00   0.0000000E+00   0.0000000E+00   0.0000000E+00   0.0000000E+00
   0.8172850E-01   0.6099550E-01  -0.1000000E-01   0.0000000E+00   0.0000000E+00   0.0000000E+00   0.0000000E+00
   0.8960080E-01   0.6687080E-01   0.0000000E+00   0.0000000E+00   0.0000000E+00   0.0000000E+00   0.0000000E+00
   0.7325760E-01   0.7094600E-01  -0.1000000E-01   0.0000000E+00   0.0000000E+00   0.0000000E+00   0.0000000E+00
   0.8031390E-01   0.7777970E-01   0.0000000E+00   0.0000000E+00   0.0000000E+00   0.0000000E+00   0.0000000E+00
   0.7765260E-01   0.6610660E-01  -0.1000000E-01   0.0000000E+00   0.0000000E+00   0.0000000E+00   0.0000000E+00
   0.8513220E-01   0.7247410E-01   0.0000000E+00   0.0000000E+00   0.0000000E+00   0.0000000E+00   0.0000000E+00
   0.6856150E-01   0.7549380E-01  -0.1000000E-01   0.0000000E+00   0.0000000E+00   0.0000000E+00   0.0000000E+00
   0.7516550E-01   0.8276560E-01   0.0000000E+00   0.0000000E+00   0.0000000E+00   0.0000000E+00   0.0000000E+00
   0.7325760E-01   0.7094600E-01  -0.1000000E-01   0.0000000E+00   0.0000000E+00   0.0000000E+00   0.0000000E+00
   0.8031390E-01   0.7777970E-01   0.0000000E+00   0.0000000E+00   0.0000000E+00   0.0000000E+00   0.0000000E+00
   0.6358370E-01   0.7973150E-01  -0.1000000E-01   0.0000000E+00   0.0000000E+00   0.0000000E+00   0.0000000E+00
   0.6970830E-01   0.8741140E-01   0.0000000E+00   0.0000000E+00   0.0000000E+00   0.0000000E+00   0.0000000E+00
   0.6856150E-01   0.7549380E-01  -0.1000000E-01   0.0000000E+00   0.0000000E+00   0.0000000E+00   0.0000000E+00
   0.7516550E-01   0.8276560E-01   0.0000000E+00   0.0000000E+00   0.0000000E+00   0.0000000E+00   0.0000000E+00
   0.5834470E-01   0.8364150E-01  -0.1000000E-01   0.0000000E+00   0.0000000E+00   0.0000000E+00   0.0000000E+00
   0.6396460E-01   0.9169810E-01   0.0000000E+00   0.0000000E+00   0.0000000E+00   0.0000000E+00   0.0000000E+00
   0.6358370E-01   0.7973150E-01  -0.1000000E-01   0.0000000E+00   0.0000000E+00   0.0000000E+00   0.0000000E+00
   0.6970830E-01   0.8741140E-01   0.0000000E+00   0.0000000E+00   0.0000000E+00   0.0000000E+00   0.0000000E+00
   0.5286590E-01   0.8720780E-01  -0.1000000E-01   0.0000000E+00   0.0000000E+00   0.0000000E+00   0.0000000E+00
   0.5795810E-01   0.9560790E-01   0.0000000E+00   0.0000000E+00   0.0000000E+00   0.0000000E+00   0.0000000E+00
   0.5834470E-01   0.8364150E-01  -0.1000000E-01   0.0000000E+00   0.0000000E+00   0.0000000E+00   0.0000000E+00
   0.6396460E-01   0.9169810E-01   0.0000000E+00   0.0000000E+00   0.0000000E+00   0.0000000E+00   0.0000000E+00
   0.4716980E-01   0.9041570E-01  -0.1000000E-01   0.0000000E+00   0.0000000E+00   0.0000000E+00   0.0000000E+00
   0.5171340E-01   0.9912480E-01   0.0000000E+00   0.0000000E+00   0.0000000E+00   0.0000000E+00   0.0000000E+00
   0.5286590E-01   0.8720780E-01  -0.1000000E-01   0.0000000E+00   0.0000000E+00   0.0000000E+00   0.0000000E+00
   0.5795810E-01   0.9560790E-01   0.0000000E+00   0.0000000E+00   0.0000000E+00   0.0000000E+00   0.0000000E+00
   0.4128000E-01   0.9325220E-01  -0.1000000E-01   0.0000000E+00   0.0000000E+00   0.0000000E+00   0.0000000E+00
   0.4525610E-01   0.1022344E+00   0.0000000E+00   0.0000000E+00   0.0000000E+00   0.0000000E+00   0.0000000E+00
   0.4716980E-01   0.9041570E-01  -0.1000000E-01   0.0000000E+00   0.0000000E+00   0.0000000E+00   0.0000000E+00
   0.5171340E-01   0.9912480E-01   0.0000000E+00   0.0000000E+00   0.0000000E+00   0.0000000E+00   0.0000000E+00
   0.3522050E-01   0.9570540E-01  -0.1000000E-01   0.0000000E+00   0.0000000E+00   0.0000000E+00   0.0000000E+00
   0.3861300E-01   0.1049240E+00   0.0000000E+00   0.0000000E+00   0.0000000E+00   0.0000000E+00   0.0000000E+00
   0.4128000E-01   0.9325220E-01  -0.1000000E-01   0.0000000E+00   0.0000000E+00   0.0000000E+00   0.0000000E+00
   0.4525610E-01   0.1022344E+00   0.0000000E+00   0.0000000E+00   0.0000000E+00   0.0000000E+00   0.0000000E+00
   0.2901620E-01   0.9776530E-01  -0.1000000E-01   0.0000000E+00   0.0000000E+00   0.0000000E+00   0.0000000E+00
   0.3181120E-01   0.1071823E+00   0.0000000E+00   0.0000000E+00   0.0000000E+00   0.0000000E+00   0.0000000E+00
   0.3522050E-01   0.9570540E-01  -0.1000000E-01   0.0000000E+00   0.0000000E+00   0.0000000E+00   0.0000000E+00
   0.3861300E-01   0.1049240E+00   0.0000000E+00   0.0000000E+00   0.0000000E+00   0.0000000E+00   0.0000000E+00
   0.2269280E-01   0.9942350E-01  -0.1000000E-01   0.0000000E+00   0.0000000E+00   0.0000000E+00   0.0000000E+00
   0.2487860E-01   0.1090003E+00   0.0000000E+00   0.0000000E+00   0.0000000E+00   0.0000000E+00   0.0000000E+00
   0.2901620E-01   0.9776530E-01  -0.1000000E-01   0.0000000E+00   0.0000000E+00   0.0000000E+00   0.0000000E+00
   0.3181120E-01   0.1071823E+00   0.0000000E+00   0.0000000E+00   0.0000000E+00   0.0000000E+00   0.0000000E+00
   0.1627610E-01   0.1006732E+00  -0.1000000E-01   0.0000000E+00   0.0000000E+00   0.0000000E+00   0.0000000E+00
   0.1784380E-01   0.1103703E+00   0.0000000E+00   0.0000000E+00   0.0000000E+00   0.0000000E+00   0.0000000E+00
   0.2269280E-01   0.9942350E-01  -0.1000000E-01   0.0000000E+00   0.0000000E+00   0.0000000E+00   0.0000000E+00
   0.2487860E-01   0.1090003E+00   0.0000000E+00   0.0000000E+00   0.0000000E+00   0.0000000E+00   0.0000000E+00
   0.9792500E-02   0.1015092E+00  -0.1000000E-01   0.0000000E+00   0.0000000E+00   0.0000000E+00   0.0000000E+00
   0.1073570E-01   0.1112868E+00   0.0000000E+00   0.0000000E+00   0.0000000E+00   0.0000000E+00   0.0000000E+00
   0.1627610E-01   0.1006732E+00  -0.1000000E-01   0.0000000E+00   0.0000000E+00   0.0000000E+00   0.0000000E+00
   0.1784380E-01   0.1103703E+00   0.0000000E+00   0.0000000E+00   0.0000000E+00   0.0000000E+00   0.0000000E+00
   0.3268600E-02   0.1019280E+00  -0.1000000E-01   0.0000000E+00   0.0000000E+00   0.0000000E+00   0.0000000E+00
   0.3583500E-02   0.1117460E+00   0.0000000E+00   0.0000000E+00   0.0000000E+00   0.0000000E+00   0.0000000E+00
   0.9792500E-02   0.1015092E+00  -0.1000000E-01   0.0000000E+00   0.0000000E+00   0.0000000E+00   0.0000000E+00
   0.1073570E-01   0.1112868E+00   0.0000000E+00   0.0000000E+00   0.0000000E+00   0.0000000E+00   0.0000000E+00
  -0.3268600E-02   0.1019280E+00  -0.1000000E-01   0.0000000E+00   0.0000000E+00   0.0000000E+00   0.0000000E+00
  -0.3583500E-02   0.1117460E+00   0.0000000E+00   0.0000000E+00   0.0000000E+00   0.0000000E+00   0.0000000E+00
   0.3268600E-02   0.1019280E+00  -0.1000000E-01   0.0000000E+00   0.0000000E+00   0.0000000E+00   0.0000000E+00
   0.3583500E-02   0.1117460E+00   0.0000000E+00   0.0000000E+00   0.0000000E+00   0.0000000E+00   0.0000000E+00
  -0.9792500E-02   0.1015092E+00  -0.1000000E-01   0.0000000E+00   0.0000000E+00   0.0000000E+00   0.0000000E+00
  -0.1073570E-01   0.1112868E+00   0.0000000E+00   0.0000000E+00   0.0000000E+00   0.0000000E+00   0.0000000E+00
  -0.3268600E-02   0.1019280E+00  -0.1000000E-01   0.0000000E+00   0.0000000E+00   0.0000000E+00   0.0000000E+00
  -0.3583500E-02   0.1117460E+00   0.0000000E+00   0.0000000E+00   0.0000000E+00   0.0000000E+00   0.0000000E+00
  -0.1627610E-01   0.1006732E+00  -0.1000000E-01   0.0000000E+00   0.0000000E+00   0.0000000E+00   0.0000000E+00
  -0.1784380E-01   0.1103703E+00   0.0000000E+00   0.0000000E+00   0.0000000E+00   0.0000000E+00   0.0000000E+00
  -0.9792500E-02   0.1015092E+00  -0.1000000E-01   0.0000000E+00   0.0000000E+00   0.0000000E+00   0.0000000E+00
  -0.1073570E-01   0.1112868E+00   0.0000000E+00   0.0000000E+00   0.0000000E+00   0.0000000E+00   0.0000000E+00
  -0.2269280E-01   0.9942350E-01  -0.1000000E-01   0.0000000E+00   0.0000000E+00   0.0000000E+00   0.0000000E+00
  -0.2487860E-01   0.1090003E+00   0.0000000E+00   0.0000000E+00   0.0000000E+00   0.0000000E+00   0.0000000E+00
  -0.1627610E-01   0.1006732E+00  -0.1000000E-01   0.0000000E+00   0.0000000E+00   0.0000000E+00   0.0000000E+00
  -0.1784380E-01   0.1103703E+00   0.0000000E+00   0.0000000E+00   0.0000000E+00   0.0000000E+00   0.0000000E+00
  -0.2901620E-01   0.9776530E-01  -0.1000000E-01   0.0000000E+00   0.0000000E+00   0.0000000E+00   0.0000000E+00
  -0.3181120E-01   0.1071823E+00   0.0000000E+00   0.0000000E+00   0.0000000E+00   0.0000000E+00   0.0000000E+00
  -0.2269280E-01   0.9942350E-01  -0.1000000E-01   0.0000000E+00   0.0000000E+00   0.0000000E+00   0.0000000E+00
  -0.2487860E-01   0.1090003E+00   0.0000000E+00   0.0000000E+00   0.0000000E+00   0.0000000E+00   0.0000000E+00
  -0.3522050E-01   0.9570540E-01  -0.1000000E-01   0.0000000E+00   0.0000000E+00   0.0000000E+00   0.0000000E+00
  -0.3861300E-01   0.1049240E+00   0.0000000E+00   0.0000000E+00   0.0000000E+00   0.0000000E+00   0.0000000E+00
  -0.2901620E-01   0.9776530E-01  -0.1000000E-01   0.0000000E+00   0.0000000E+00   0.0000000E+00   0.0000000E+00
  -0.3181120E-01   0.1071823E+00   0.0000000E+00   0.0000000E+00   0.0000000E+00   0.0000000E+00   0.0000000E+00
  -0.4128000E-01   0.9325220E-01  -0.1000000E-01   0.0000000E+00   0.0000000E+00   0.0000000E+00   0.0000000E+00
  -0.4525610E-01   0.1022344E+00   0.0000000E+00   0.0000000E+00   0.0000000E+00   0.0000000E+00   0.0000000E+00
  -0.3522050E-01   0.9570540E-01  -0.1000000E-01   0.0000000E+00   0.0000000E+00   0.0000000E+00   0.0000000E+00
  -0.3861300E-01   0.1049240E+00   0.0000000E+00   0.0000000E+00   0.0000000E+00   0.0000000E+00   0.0000000E+00
  -0.4716980E-01   0.9041570E-01  -0.1000000E-01   0.0000000E+00   0.0000000E+00   0.0000000E+00   0.0000000E+00
  -0.5171340E-01   0.9912480E-01   0.0000000E+00   0.0000000E+00   0.0000000E+00   0.0000000E+00   0.0000000E+00
  -0.4128000E-01   0.9325220E-01  -0.1000000E-01   0.0000000E+00   0.0000000E+00   0.0000000E+00   0.0000000E+00
  -0.4525610E-01   0.1022344E+00   0.0000000E+00   0.0000000E+00   0.0000000E+00   0.0000000E+00   0.0000000E+00
  -0.5286590E-01   0.8720780E-01  -0.1000000E-01   0.0000000E+00   0.0000000E+00   0.0000000E+00   0.0000000E+00
  -0.5795810E-01   0.9560790E-01   0.0000000E+00   0.0000000E+00   0.0000000E+00   0.0000000E+00   0.0000000E+00
  -0.4716980E-01   0.9041570E-01  -0.1000000E-01   0.0000000E+00   0.0000000E+00   0.0000000E+00   0.0000000E+00
  -0.5171340E-01   0.9912480E-01   0.0000000E+00   0.0000000E+00   0.0000000E+00   0.0000000E+00   0.0000000E+00
  -0.5834470E-01   0.8364150E-01  -0.1000000E-01   0.0000000E+00   0.0000000E+00   0.0000000E+00   0.0000000E+00
  -0.6396460E-01   0.9169810E-01   0.0000000E+00   0.0000000E+00   0.0000000E+00   0.0000000E+00   0.0000000E+00
  -0.5286590E-01   0.8720780E-01  -0.1000000E-01   0.0000000E+00   0.0000000E+00   0.0000000E+00   0.0000000E+00
  -0.5795810E-01   0.9560790E-01   0.0000000E+00   0.0000000E+00   0.0000000E+00   0.0000000E+00   0.0000000E+00
  -0.6358370E-01   0.7973150E-01  -0.1000000E-01   0.0000000E+00   0.0000000E+00   0.0000000E+00   0.0000000E+00
  -0.6970830E-01   0.8741140E-01   0.0000000E+00   0.0000000E+00   0.0000000E+00   0.0000000E+00   0.0000000E+00
  -0.5834470E-01   0.8364150E-01  -0.1000000E-01   0.0000000E+00   0.0000000E+00   0.0000000E+00   0.0000000E+00
  -0.6396460E-01   0.9169810E-01   0.0000000E+00   0.0000000E+00   0.0000000E+00   0.0000000E+00   0.0000000E+00
  -0.6856150E-01   0.7549380E-01  -0.1000000E-01   0.0000000E+00   0.0000000E+00   0.0000000E+00   0.0000000E+00
  -0.7516550E-01   0.8276560E-01   0.0000000E+00   0.0000000E+00   0.0000000E+00   0.0000000E+00   0.0000000E+00
  -0.6358370E-01   0.7973150E-01  -0.1000000E-01   0.0000000E+00   0.0000000E+00   0.0000000E+00   0.0000000E+00
  -0.6970830E-01   0.8741140E-01   0.0000000E+00   0.0000000E+00   0.0000000E+00   0.0000000E+00   0.0000000E+00
  -0.7325760E-01   0.7094600E-01  -0.1000000E-01   0.0000000E+00   0.0000000E+00   0.0000000E+00   0.0000000E+00
  -0.8031390E-01   0.7777970E-01   0.0000000E+00   0.0000000E+00   0.0000000E+00   0.0000000E+00   0.0000000E+00
  -0.6856150E-01   0.7549380E-01  -0.1000000E-01   0.0000000E+00   0.0000000E+00   0.0000000E+00   0.0000000E+00
  -0.7516550E-01   0.8276560E-01   0.0000000E+00   0.0000000E+00   0.0000000E+00   0.0000000E+00   0.0000000E+00
  -0.7765260E-01   0.6610660E-01  -0.1000000E-01   0.0000000E+00   0.0000000E+00   0.0000000E+00   0.0000000E+00
  -0.8513220E-01   0.7247410E-01   0.0000000E+00   0.0000000E+00   0.0000000E+00   0.0000000E+00   0.0000000E+00
  -0.7325760E-01   0.7094600E-01  -0.1000000E-01   0.0000000E+00   0.0000000E+00   0.0000000E+00   0.0000000E+00
  -0.8031390E-01   0.7777970E-01   0.0000000E+00   0.0000000E+00   0.0000000E+00   0.0000000E+00   0.0000000E+00
  -0.8172850E-01   0.6099550E-01  -0.1000000E-01   0.0000000E+00   0.0000000E+00   0.0000000E+00   0.0000000E+00
  -0.8960080E-01   0.6687080E-01   0.0000000E+00   0.0000000E+00   0.0000000E+00   0.0000000E+00   0.0000000E+00
  -0.7765260E-01   0.6610660E-01  -0.1000000E-01   0.0000000E+00   0.0000000E+00   0.0000000E+00   0.0000000E+00
  -0.8513220E-01   0.7247410E-01   0.0000000E+00   0.0000000E+00   0.0000000E+00   0.0000000E+00   0.0000000E+00
  -0.8546860E-01   0.5563390E-01  -0.1000000E-01   0.0000000E+00   0.0000000E+00   0.0000000E+00   0.0000000E+00
  -0.9370110E-01   0.6099270E-01   0.0000000E+00   0.0000000E+00   0.0000000E+00   0.0000000E+00   0.0000000E+00
  -0.8172850E-01   0.6099550E-01  -0.1000000E-01   0.0000000E+00   0.0000000E+00   0.0000000E+00   0.0000000E+00
  -0.8960080E-01   0.6687080E-01   0.0000000E+00   0.0000000E+00   0.0000000E+00   0.0000000E+00   0.0000000E+00
  -0.8885740E-01   0.5004360E-01  -0.1000000E-01   0.0000000E+00   0.0000000E+00   0.0000000E+00   0.0000000E+00
  -0.9741640E-01   0.5486390E-01   0.0000000E+00   0.0000000E+00   0.0000000E+00   0.0000000E+00   0.0000000E+00
  -0.8546860E-01   0.5563390E-01  -0.1000000E-01   0.0000000E+00   0.0000000E+00   0.0000000E+00   0.0000000E+00
  -0.9370110E-01   0.6099270E-01   0.0000000E+00   0.0000000E+00   0.0000000E+00   0.0000000E+00   0.0000000E+00
  -0.9188120E-01   0.4424760E-01  -0.1000000E-01   0.0000000E+00   0.0000000E+00   0.0000000E+00   0.0000000E+00
  -0.1007314E+00   0.4850970E-01   0.0000000E+00   0.0000000E+00   0.0000000E+00   0.0000000E+00   0.0000000E+00
  -0.8885740E-01   0.5004360E-01  -0.1000000E-01   0.0000000E+00   0.0000000E+00   0.0000000E+00   0.0000000E+00
  -0.9741640E-01   0.5486390E-01   0.0000000E+00   0.0000000E+00   0.0000000E+00   0.0000000E+00   0.0000000E+00
  -0.9452730E-01   0.3826990E-01  -0.1000000E-01   0.0000000E+00   0.0000000E+00   0.0000000E+00   0.0000000E+00
  -0.1036324E+00   0.4195610E-01   0.0000000E+00   0.0000000E+00   0.0000000E+00   0.0000000E+00   0.0000000E+00
  -0.9188120E-01   0.4424760E-01  -0.1000000E-01   0.0000000E+00   0.0000000E+00   0.0000000E+00   0.0000000E+00
  -0.1007314E+00   0.4850970E-01   0.0000000E+00   0.0000000E+00   0.0000000E+00   0.0000000E+00   0.0000000E+00
  -0.9678510E-01   0.3213490E-01  -0.1000000E-01   0.0000000E+00   0.0000000E+00   0.0000000E+00   0.0000000E+00
  -0.1061077E+00   0.3523020E-01   0.0000000E+00   0.0000000E+00   0.0000000E+00   0.0000000E+00   0.0000000E+00
  -0.9452730E-01   0.3826990E-01  -0.1000000E-01   0.0000000E+00   0.0000000E+00   0.0000000E+00   0.0000000E+00
  -0.1036324E+00   0.4195610E-01   0.0000000E+00   0.0000000E+00   0.0000000E+00   0.0000000E+00   0.0000000E+00
  -0.9864510E-01   0.2586780E-01  -0.1000000E-01   0.0000000E+00   0.0000000E+00   0.0000000E+00   0.0000000E+00
  -0.1081469E+00   0.2835940E-01   0.0000000E+00   0.0000000E+00   0.0000000E+00   0.0000000E+00   0.0000000E+00
  -0.9678510E-01   0.3213490E-01  -0.1000000E-01   0.0000000E+00   0.0000000E+00   0.0000000E+00   0.0000000E+00
  -0.1061077E+00   0.3523020E-01   0.0000000E+00   0.0000000E+00   0.0000000E+00   0.0000000E+00   0.0000000E+00
  -0.1000998E+00   0.1949440E-01  -0.1000000E-01   0.0000000E+00   0.0000000E+00   0.0000000E+00   0.0000000E+00
  -0.1097416E+00   0.2137220E-01   0.0000000E+00   0.0000000E+00   0.0000000E+00   0.0000000E+00   0.0000000E+00
  -0.9864510E-01   0.2586780E-01  -0.1000000E-01   0.0000000E+00   0.0000000E+00   0.0000000E+00   0.0000000E+00
  -0.1081469E+00   0.2835940E-01   0.0000000E+00   0.0000000E+00   0.0000000E+00   0.0000000E+00   0.0000000E+00
  -0.1011431E+00   0.1304100E-01  -0.1000000E-01   0.0000000E+00   0.0000000E+00   0.0000000E+00   0.0000000E+00
  -0.1108855E+00   0.1429710E-01   0.0000000E+00   0.0000000E+00   0.0000000E+00   0.0000000E+00   0.0000000E+00
  -0.1000998E+00   0.1949440E-01  -0.1000000E-01   0.0000000E+00   0.0000000E+00   0.0000000E+00   0.0000000E+00
  -0.1097416E+00   0.2137220E-01   0.0000000E+00   0.0000000E+00   0.0000000E+00   0.0000000E+00   0.0000000E+00
  -0.1017709E+00   0.6533900E-02  -0.1000000E-01   0.0000000E+00   0.0000000E+00   0.0000000E+00   0.0000000E+00
  -0.1115737E+00   0.7163300E-02   0.0000000E+00   0.0000000E+00   0.0000000E+00   0.0000000E+00   0.0000000E+00
  -0.1011431E+00   0.1304100E-01  -0.1000000E-01   0.0000000E+00   0.0000000E+00   0.0000000E+00   0.0000000E+00
  -0.1108855E+00   0.1429710E-01   0.0000000E+00   0.0000000E+00   0.0000000E+00   0.0000000E+00   0.0000000E+00
  -0.1019804E+00   0.0000000E+00  -0.1000000E-01   0.0000000E+00   0.0000000E+00   0.0000000E+00   0.0000000E+00
  -0.1118034E+00   0.0000000E+00   0.0000000E+00   0.0000000E+00   0.0000000E+00   0.0000000E+00   0.0000000E+00
  -0.1017709E+00   0.6533900E-02  -0.1000000E-01   0.0000000E+00   0.0000000E+00   0.0000000E+00   0.0000000E+00
  -0.1115737E+00   0.7163300E-02   0.0000000E+00   0.0000000E+00   0.0000000E+00   0.0000000E+00   0.0000000E+00
   0.8981510E-01   0.5766300E-02  -0.2000000E-01   0.0000000E+00   0.0000000E+00   0.0000000E+00   0.0000000E+00
   0.1017709E+00   0.6533900E-02  -0.1000000E-01   0.0000000E+00   0.0000000E+00   0.0000000E+00   0.0000000E+00
   0.9000000E-01   0.0000000E+00  -0.2000000E-01   0.0000000E+00   0.0000000E+00   0.0000000E+00   0.0000000E+00
   0.1019804E+00   0.0000000E+00  -0.1000000E-01   0.0000000E+00   0.0000000E+00   0.0000000E+00   0.0000000E+00
   0.8926110E-01   0.1150890E-01  -0.2000000E-01   0.0000000E+00   0.0000000E+00   0.0000000E+00   0.0000000E+00
   0.1011431E+00   0.1304100E-01  -0.1000000E-01   0.0000000E+00   0.0000000E+00   0.0000000E+00   0.0000000E+00
   0.8981510E-01   0.5766300E-02  -0.2000000E-01   0.0000000E+00   0.0000000E+00   0.0000000E+00   0.0000000E+00
   0.1017709E+00   0.6533900E-02  -0.1000000E-01   0.0000000E+00   0.0000000E+00   0.0000000E+00   0.0000000E+00
   0.8834030E-01   0.1720430E-01  -0.2000000E-01   0.0000000E+00   0.0000000E+00   0.0000000E+00   0.0000000E+00
   0.1000998E+00   0.1949440E-01  -0.1000000E-01   0.0000000E+00   0.0000000E+00   0.0000000E+00   0.0000000E+00
   0.8926110E-01   0.1150890E-01  -0.2000000E-01   0.0000000E+00   0.0000000E+00   0.0000000E+00   0.0000000E+00
   0.1011431E+00   0.1304100E-01  -0.1000000E-01   0.0000000E+00   0.0000000E+00   0.0000000E+00   0.0000000E+00
   0.8705650E-01   0.2282890E-01  -0.2000000E-01   0.0000000E+00   0.0000000E+00   0.0000000E+00   0.0000000E+00
   0.9864510E-01   0.2586780E-01  -0.1000000E-01   0.0000000E+00   0.0000000E+00   0.0000000E+00   0.0000000E+00
   0.8834030E-01   0.1720430E-01  -0.2000000E-01   0.0000000E+00   0.0000000E+00   0.0000000E+00   0.0000000E+00
   0.1000998E+00   0.1949440E-01  -0.1000000E-01   0.0000000E+00   0.0000000E+00   0.0000000E+00   0.0000000E+00
   0.8541500E-01   0.2835970E-01  -0.2000000E-01   0.0000000E+00   0.0000000E+00   0.0000000E+00   0.0000000E+00
   0.9678510E-01   0.3213490E-01  -0.1000000E-01   0.0000000E+00   0.0000000E+00   0.0000000E+00   0.0000000E+00
   0.8705650E-01   0.2282890E-01  -0.2000000E-01   0.0000000E+00   0.0000000E+00   0.0000000E+00   0.0000000E+00
   0.9864510E-01   0.2586780E-01  -0.1000000E-01   0.0000000E+00   0.0000000E+00   0.0000000E+00   0.0000000E+00
   0.8342250E-01   0.3377400E-01  -0.2000000E-01   0.0000000E+00   0.0000000E+00   0.0000000E+00   0.0000000E+00
   0.9452730E-01   0.3826990E-01  -0.1000000E-01   0.0000000E+00   0.0000000E+00   0.0000000E+00   0.0000000E+00
   0.8541500E-01   0.2835970E-01  -0.2000000E-01   0.0000000E+00   0.0000000E+00   0.0000000E+00   0.0000000E+00
   0.9678510E-01   0.3213490E-01  -0.1000000E-01   0.0000000E+00   0.0000000E+00   0.0000000E+00   0.0000000E+00
   0.8108720E-01   0.3904950E-01  -0.2000000E-01   0.0000000E+00   0.0000000E+00   0.0000000E+00   0.0000000E+00
   0.9188120E-01   0.4424760E-01  -0.1000000E-01   0.0000000E+00   0.0000000E+00   0.0000000E+00   0.0000000E+00
   0.8342250E-01   0.3377400E-01  -0.2000000E-01   0.0000000E+00   0.0000000E+00   0.0000000E+00   0.0000000E+00
   0.9452730E-01   0.3826990E-01  -0.1000000E-01   0.0000000E+00   0.0000000E+00   0.0000000E+00   0.0000000E+00
   0.7841870E-01   0.4416460E-01  -0.2000000E-01   0.0000000E+00   0.0000000E+00   0.0000000E+00   0.0000000E+00
   0.8885740E-01   0.5004360E-01  -0.1000000E-01   0.0000000E+00   0.0000000E+00   0.0000000E+00   0.0000000E+00
   0.8108720E-01   0.3904950E-01  -0.2000000E-01   0.0000000E+00   0.0000000E+00   0.0000000E+00   0.0000000E+00
   0.9188120E-01   0.4424760E-01  -0.1000000E-01   0.0000000E+00   0.0000000E+00   0.0000000E+00   0.0000000E+00
   0.7542790E-01   0.4909810E-01  -0.2000000E-01   0.0000000E+00   0.0000000E+00   0.0000000E+00   0.0000000E+00
   0.8546860E-01   0.5563390E-01  -0.1000000E-01   0.0000000E+00   0.0000000E+00   0.0000000E+00   0.0000000E+00
   0.7841870E-01   0.4416460E-01  -0.2000000E-01   0.0000000E+00   0.0000000E+00   0.0000000E+00   0.0000000E+00
   0.8885740E-01   0.5004360E-01  -0.1000000E-01   0.0000000E+00   0.0000000E+00   0.0000000E+00   0.0000000E+00
   0.7212720E-01   0.5382990E-01  -0.2000000E-01   0.0000000E+00   0.0000000E+00   0.0000000E+00   0.0000000E+00
   0.8172850E-01   0.6099550E-01  -0.1000000E-01   0.0000000E+00   0.0000000E+00   0.0000000E+00   0.0000000E+00
   0.7542790E-01   0.4909810E-01  -0.2000000E-01   0.0000000E+00   0.0000000E+00   0.0000000E+00   0.0000000E+00
   0.8546860E-01   0.5563390E-01  -0.1000000E-01   0.0000000E+00   0.0000000E+00   0.0000000E+00   0.0000000E+00
   0.6853010E-01   0.5834060E-01  -0.2000000E-01   0.0000000E+00   0.0000000E+00   0.0000000E+00   0.0000000E+00
   0.7765260E-01   0.6610660E-01  -0.1000000E-01   0.0000000E+00   0.0000000E+00   0.0000000E+00   0.0000000E+00
   0.7212720E-01   0.5382990E-01  -0.2000000E-01   0.0000000E+00   0.0000000E+00   0.0000000E+00   0.0000000E+00
   0.8172850E-01   0.6099550E-01  -0.1000000E-01   0.0000000E+00   0.0000000E+00   0.0000000E+00   0.0000000E+00
   0.6465140E-01   0.6261140E-01  -0.2000000E-01   0.0000000E+00   0.0000000E+00   0.0000000E+00   0.0000000E+00
   0.7325760E-01   0.7094600E-01  -0.1000000E-01   0.0000000E+00   0.0000000E+00   0.0000000E+00   0.0000000E+00
   0.6853010E-01   0.5834060E-01  -0.2000000E-01   0.0000000E+00   0.0000000E+00   0.0000000E+00   0.0000000E+00
   0.7765260E-01   0.6610660E-01  -0.1000000E-01   0.0000000E+00   0.0000000E+00   0.0000000E+00   0.0000000E+00
   0.6050710E-01   0.6662500E-01  -0.2000000E-01   0.0000000E+00   0.0000000E+00   0.0000000E+00   0.0000000E+00
   0.6856150E-01   0.7549380E-01  -0.1000000E-01   0.0000000E+00   0.0000000E+00   0.0000000E+00   0.0000000E+00
   0.6465140E-01   0.6261140E-01  -0.2000000E-01   0.0000000E+00   0.0000000E+00   0.0000000E+00   0.0000000E+00
   0.7325760E-01   0.7094600E-01  -0.1000000E-01   0.0000000E+00   0.0000000E+00   0.0000000E+00   0.0000000E+00
   0.5611410E-01   0.7036480E-01  -0.2000000E-01   0.0000000E+00   0.0000000E+00   0.0000000E+00   0.0000000E+00
   0.6358370E-01   0.7973150E-01  -0.1000000E-01   0.0000000E+00   0.0000000E+00   0.0000000E+00   0.0000000E+00
   0.6050710E-01   0.6662500E-01  -0.2000000E-01   0.0000000E+00   0.0000000E+00   0.0000000E+00   0.0000000E+00
   0.6856150E-01   0.7549380E-01  -0.1000000E-01   0.0000000E+00   0.0000000E+00   0.0000000E+00   0.0000000E+00
   0.5149050E-01   0.7381550E-01  -0.2000000E-01   0.0000000E+00   0.0000000E+00   0.0000000E+00   0.0000000E+00
   0.5834470E-01   0.8364150E-01  -0.1000000E-01   0.0000000E+00   0.0000000E+00   0.0000000E+00   0.0000000E+00
   0.5611410E-01   0.7036480E-01  -0.2000000E-01   0.0000000E+00   0.0000000E+00   0.0000000E+00   0.0000000E+00
   0.6358370E-01   0.7973150E-01  -0.1000000E-01   0.0000000E+00   0.0000000E+00   0.0000000E+00   0.0000000E+00
   0.4665530E-01   0.7696290E-01  -0.2000000E-01   0.0000000E+00   0.0000000E+00   0.0000000E+00   0.0000000E+00
   0.5286590E-01   0.8720780E-01  -0.1000000E-01   0.0000000E+00   0.0000000E+00   0.0000000E+00   0.0000000E+00
   0.5149050E-01   0.7381550E-01  -0.2000000E-01   0.0000000E+00   0.0000000E+00   0.0000000E+00   0.0000000E+00
   0.5834470E-01   0.8364150E-01  -0.1000000E-01   0.0000000E+00   0.0000000E+00   0.0000000E+00   0.0000000E+00
   0.4162850E-01   0.7979390E-01  -0.2000000E-01   0.0000000E+00   0.0000000E+00   0.0000000E+00   0.0000000E+00
   0.4716980E-01   0.9041570E-01  -0.1000000E-01   0.0000000E+00   0.0000000E+00   0.0000000E+00   0.0000000E+00