VARIABLES="w (rad/s)"
"abs(F   1   1)" "angle(F   1   1)"
"abs(F   1   2)" "angle(F   1   2)"
"abs(F   1   3)" "angle(F   1   3)"
Zone t="Diffraction force - beta =   0.000 deg",I=   100,F=POINT
  0.1000000E+00  0.9445959E-01 -0.1570796E+01  0.6239213E-01 -0.3141539E+01  0.2720522E+00 -0.1570796E+01
  0.3010101E+00  0.8555807E+00 -0.1570796E+01  0.5661809E+00 -0.3141108E+01  0.2464153E+01 -0.1570796E+01
  0.5020202E+00  0.2379996E+01 -0.1570796E+01  0.1577776E+01 -0.3140282E+01  0.6854624E+01 -0.1570796E+01
  0.7030303E+00  0.4695380E+01 -0.1570794E+01  0.3078266E+01 -0.3139113E+01  0.1352314E+02 -0.1570794E+01
  0.9040404E+00  0.7783050E+01 -0.1570788E+01  0.5067638E+01 -0.3137688E+01  0.2241594E+02 -0.1570788E+01
  0.1105051E+01  0.1162598E+02 -0.1570769E+01  0.7535265E+01 -0.3136114E+01  0.3348387E+02 -0.1570769E+01
  0.1306061E+01  0.1623517E+02 -0.1570724E+01  0.1045436E+02 -0.3134500E+01  0.4675874E+02 -0.1570724E+01
  0.1507071E+01  0.2161646E+02 -0.1570627E+01  0.1380629E+02 -0.3132967E+01  0.6225734E+02 -0.1570627E+01
  0.1708081E+01  0.2774621E+02 -0.1570444E+01  0.1758694E+02 -0.3131650E+01  0.7991167E+02 -0.1570444E+01
  0.1909091E+01  0.3468067E+02 -0.1570123E+01  0.2172605E+02 -0.3130626E+01  0.9988324E+02 -0.1570123E+01
  0.2110101E+01  0.4236276E+02 -0.1569593E+01  0.2625075E+02 -0.3130026E+01  0.1220084E+03 -0.1569593E+01
  0.2311111E+01  0.5087714E+02 -0.1568766E+01  0.3108769E+02 -0.3129881E+01  0.1465304E+03 -0.1568766E+01
  0.2512121E+01  0.6020411E+02 -0.1567529E+01  0.3622575E+02 -0.3130246E+01  0.1733926E+03 -0.1567529E+01
  0.2713131E+01  0.7034833E+02 -0.1565745E+01  0.4168071E+02 -0.3131132E+01  0.2026087E+03 -0.1565745E+01
  0.2914141E+01  0.8143407E+02 -0.1563257E+01  0.4736746E+02 -0.3132464E+01  0.2345367E+03 -0.1563257E+01
  0.3115151E+01  0.9345219E+02 -0.1559878E+01  0.5327538E+02 -0.3134185E+01  0.2691494E+03 -0.1559878E+01
  0.3316161E+01  0.1063726E+03 -0.1555393E+01  0.5949456E+02 -0.3136177E+01  0.3063603E+03 -0.1555392E+01
  0.3517171E+01  0.1204000E+03 -0.1549572E+01  0.6592164E+02 -0.3138248E+01  0.3467592E+03 -0.1549572E+01
  0.3718182E+01  0.1356040E+03 -0.1542162E+01  0.7248196E+02 -0.3140194E+01  0.3905481E+03 -0.1542161E+01
  0.3919192E+01  0.1519396E+03 -0.1532875E+01  0.7924386E+02  0.3141414E+01  0.4375949E+03 -0.1532875E+01
  0.4120202E+01  0.1694926E+03 -0.1521404E+01  0.8628662E+02  0.3140427E+01  0.4881497E+03 -0.1521404E+01
  0.4321212E+01  0.1884703E+03 -0.1507427E+01  0.9352584E+02  0.3140342E+01  0.5428066E+03 -0.1507426E+01
  0.4522222E+01  0.2090304E+03 -0.1490590E+01  0.1008560E+03  0.3141447E+01  0.6020185E+03 -0.1490589E+01
  0.4723232E+01  0.2312331E+03 -0.1470520E+01  0.1082143E+03 -0.3139257E+01  0.6659625E+03 -0.1470520E+01
  0.4924242E+01  0.2550038E+03 -0.1446818E+01  0.1156686E+03 -0.3135108E+01  0.7344232E+03 -0.1446817E+01
  0.5125252E+01  0.2804280E+03 -0.1419051E+01  0.1232694E+03 -0.3128957E+01  0.8076445E+03 -0.1419050E+01
  0.5326262E+01  0.3077228E+03 -0.1386751E+01  0.1308687E+03 -0.3120798E+01  0.8862540E+03 -0.1386750E+01
  0.5527273E+01  0.3370801E+03 -0.1349414E+01  0.1383466E+03 -0.3110558E+01  0.9708049E+03 -0.1349412E+01
  0.5728283E+01  0.3684506E+03 -0.1306475E+01  0.1455088E+03 -0.3098150E+01  0.1061152E+04 -0.1306474E+01
  0.5929293E+01  0.4016930E+03 -0.1257403E+01  0.1522136E+03 -0.3083531E+01  0.1156890E+04 -0.1257401E+01
  0.6130303E+01  0.4363987E+03 -0.1201675E+01  0.1584787E+03 -0.3066763E+01  0.1256844E+04 -0.1201673E+01
  0.6331313E+01  0.4720839E+03 -0.1138799E+01  0.1643139E+03 -0.3047913E+01  0.1359616E+04 -0.1138796E+01
  0.6532323E+01  0.5081955E+03 -0.1068417E+01  0.1695556E+03 -0.3027332E+01  0.1463617E+04 -0.1068414E+01
  0.6733334E+01  0.5439266E+03 -0.9902300E+00  0.1740707E+03 -0.3005219E+01  0.1566522E+04 -0.9902278E+00
  0.6934343E+01  0.5782524E+03 -0.9042492E+00  0.1776855E+03 -0.2981928E+01  0.1665380E+04 -0.9042450E+00
  0.7135354E+01  0.6100034E+03 -0.8107989E+00  0.1803576E+03 -0.2957773E+01  0.1756818E+04 -0.8107949E+00
  0.7336363E+01  0.6374709E+03 -0.7106386E+00  0.1819412E+03 -0.2933222E+01  0.1835926E+04 -0.7106357E+00
  0.7537374E+01  0.6591191E+03 -0.6050760E+00  0.1823965E+03 -0.2908940E+01  0.1898276E+04 -0.6050696E+00
  0.7738384E+01  0.6737156E+03 -0.4956266E+00  0.1817880E+03 -0.2885185E+01  0.1940309E+04 -0.4956211E+00
  0.7939394E+01  0.6804843E+03 -0.3842473E+00  0.1800836E+03 -0.2862541E+01  0.1959801E+04 -0.3842413E+00
  0.8140405E+01  0.6794178E+03 -0.2729519E+00  0.1773789E+03 -0.2841456E+01  0.1956729E+04 -0.2729456E+00
  0.8341414E+01  0.6709948E+03 -0.1636326E+00  0.1737473E+03 -0.2822400E+01  0.1932470E+04 -0.1636252E+00
  0.8542424E+01  0.6563253E+03 -0.5769298E-01  0.1692698E+03 -0.2805817E+01  0.1890224E+04 -0.5768469E-01
  0.8743435E+01  0.6366075E+03  0.4357262E-01  0.1640416E+03 -0.2792414E+01  0.1833436E+04  0.4358121E-01
  0.8944445E+01  0.6133812E+03  0.1397919E+00  0.1582232E+03 -0.2782419E+01  0.1766541E+04  0.1398012E+00
  0.9145455E+01  0.5878068E+03  0.2303486E+00  0.1518836E+03 -0.2776638E+01  0.1692884E+04  0.2303585E+00
  0.9346465E+01  0.5611324E+03  0.3154560E+00  0.1452350E+03 -0.2775312E+01  0.1616062E+04  0.3154655E+00
  0.9547475E+01  0.5342303E+03  0.3955278E+00  0.1384176E+03 -0.2778686E+01  0.1538583E+04  0.3955387E+00
  0.9748485E+01  0.5076558E+03  0.4709139E+00  0.1315495E+03 -0.2787211E+01  0.1462050E+04  0.4709247E+00
  0.9949495E+01  0.4817447E+03  0.5416260E+00  0.1247435E+03 -0.2801690E+01  0.1387423E+04  0.5416399E+00
  0.1015051E+02  0.4567992E+03  0.6082146E+00  0.1181294E+03 -0.2822449E+01  0.1315581E+04  0.6082275E+00
  0.1035151E+02  0.4330363E+03  0.6712143E+00  0.1117927E+03 -0.2849699E+01  0.1247144E+04  0.6712270E+00
  0.1055252E+02  0.4105074E+03  0.7308854E+00  0.1058691E+03 -0.2883465E+01  0.1182261E+04  0.7308992E+00
  0.1075354E+02  0.3892261E+03  0.7875286E+00  0.1004616E+03 -0.2923569E+01  0.1120970E+04  0.7875432E+00
  0.1095455E+02  0.3691861E+03  0.8414704E+00  0.9564825E+02 -0.2969724E+01  0.1063256E+04  0.8414863E+00
  0.1115556E+02  0.3503643E+03  0.8930994E+00  0.9148750E+02 -0.3021281E+01  0.1009049E+04  0.8931146E+00
  0.1135657E+02  0.3326061E+03  0.9424083E+00  0.8800835E+02 -0.3077168E+01  0.9579048E+03  0.9424228E+00
  0.1155758E+02  0.3157924E+03  0.9892468E+00  0.8521008E+02 -0.3136712E+01  0.9094828E+03  0.9892625E+00
  0.1175859E+02  0.2998870E+03  0.1033931E+01  0.8310817E+02  0.3085433E+01  0.8636743E+03  0.1033948E+01
  0.1195960E+02  0.2848912E+03  0.1076784E+01  0.8165275E+02  0.3024498E+01  0.8204886E+03  0.1076800E+01
  0.1216061E+02  0.2706547E+03  0.1117879E+01  0.8079423E+02  0.2965518E+01  0.7794866E+03  0.1117896E+01
  0.1236162E+02  0.2571010E+03  0.1157041E+01  0.8042114E+02  0.2909979E+01  0.7404522E+03  0.1157057E+01
  0.1256263E+02  0.2442517E+03  0.1194592E+01  0.8048653E+02  0.2858483E+01  0.7034462E+03  0.1194608E+01
  0.1276364E+02  0.2319588E+03  0.1230429E+01  0.8090113E+02  0.2811725E+01  0.6680441E+03  0.1230446E+01
  0.1296465E+02  0.2201491E+03  0.1264636E+01  0.8155342E+02  0.2770597E+01  0.6340318E+03  0.1264653E+01
  0.1316566E+02  0.2087652E+03  0.1296989E+01  0.8240652E+02  0.2734708E+01  0.6012461E+03  0.1297007E+01
  0.1336667E+02  0.1977825E+03  0.1327764E+01  0.8335628E+02  0.2704163E+01  0.5696164E+03  0.1327782E+01
  0.1356768E+02  0.1871739E+03  0.1356678E+01  0.8435286E+02  0.2678695E+01  0.5390624E+03  0.1356696E+01
  0.1376869E+02  0.1768912E+03  0.1384194E+01  0.8536376E+02  0.2658301E+01  0.5094495E+03  0.1384210E+01
  0.1396970E+02  0.1669181E+03  0.1410470E+01  0.8634543E+02  0.2642503E+01  0.4807261E+03  0.1410487E+01
  0.1417071E+02  0.1571918E+03  0.1434812E+01  0.8727517E+02  0.2631271E+01  0.4527157E+03  0.1434829E+01
  0.1437172E+02  0.1477128E+03  0.1457847E+01  0.8829542E+02  0.2624658E+01  0.4254157E+03  0.1457863E+01
  0.1457273E+02  0.1385013E+03  0.1479559E+01  0.8935904E+02  0.2624249E+01  0.3988867E+03  0.1479575E+01
  0.1477374E+02  0.1294977E+03  0.1499932E+01  0.9078569E+02  0.2634510E+01  0.3729565E+03  0.1499949E+01
  0.1497475E+02  0.1206779E+03  0.1518414E+01  0.9473203E+02  0.2691765E+01  0.3475547E+03  0.1518430E+01
  0.1517576E+02  0.1120537E+03  0.1535747E+01  0.6740790E+02  0.2426697E+01  0.3227175E+03  0.1535763E+01
  0.1537677E+02  0.1036087E+03  0.1551490E+01  0.8352531E+02  0.2544375E+01  0.2983956E+03  0.1551507E+01
  0.1557778E+02  0.9538577E+02  0.1565710E+01  0.8495603E+02  0.2567661E+01  0.2747141E+03  0.1565726E+01
  0.1577879E+02  0.8734078E+02  0.1578843E+01  0.8509043E+02  0.2580947E+01  0.2515442E+03  0.1578859E+01
  0.1597980E+02  0.7949477E+02  0.1590414E+01  0.8460426E+02  0.2591347E+01  0.2289476E+03  0.1590429E+01
  0.1618081E+02  0.7185339E+02  0.1600298E+01  0.8373894E+02  0.2601527E+01  0.2069404E+03  0.1600312E+01
  0.1638182E+02  0.6438320E+02  0.1607929E+01  0.8259018E+02  0.2612082E+01  0.1854269E+03  0.1607943E+01
  0.1658283E+02  0.5717466E+02  0.1614315E+01  0.8118575E+02  0.2622252E+01  0.1646660E+03  0.1614327E+01
  0.1678384E+02  0.5016118E+02  0.1618470E+01  0.7967157E+02  0.2633132E+01  0.1444674E+03  0.1618482E+01
  0.1698485E+02  0.4339862E+02  0.1620016E+01  0.7802058E+02  0.2644190E+01  0.1249911E+03  0.1620026E+01
  0.1718586E+02  0.3688450E+02  0.1617761E+01  0.7620876E+02  0.2655392E+01  0.1062303E+03  0.1617770E+01
  0.1738687E+02  0.3059452E+02  0.1610267E+01  0.7424130E+02  0.2666655E+01  0.8811539E+02  0.1610274E+01
  0.1758788E+02  0.2462026E+02  0.1595442E+01  0.7213002E+02  0.2677661E+01  0.7090936E+02  0.1595446E+01
  0.1778889E+02  0.1892569E+02  0.1567866E+01  0.6986297E+02  0.2689107E+01  0.5450901E+02  0.1567867E+01
  0.1798990E+02  0.1356800E+02  0.1513149E+01  0.6746712E+02  0.2700602E+01  0.3907895E+02  0.1513147E+01
  0.1819091E+02  0.8652736E+01  0.1390371E+01  0.6487734E+02  0.2712610E+01  0.2492304E+02  0.1390373E+01
  0.1839192E+02  0.4544877E+01  0.1035673E+01  0.6216296E+02  0.2724310E+01  0.1309234E+02  0.1035745E+01
  0.1859293E+02  0.3063575E+01 -0.6500133E-01  0.5933255E+02  0.2736056E+01  0.8823812E+01 -0.6464132E-01
  0.1879394E+02  0.5386309E+01 -0.7984993E+00  0.5636301E+02  0.2747705E+01  0.1551104E+02 -0.7983123E+00
  0.1899495E+02  0.7830694E+01 -0.9903877E+00  0.5329437E+02  0.2759087E+01  0.2255036E+02 -0.9902765E+00
  0.1919596E+02  0.8081668E+01 -0.1064695E+01  0.5015059E+02  0.2770583E+01  0.2327299E+02 -0.1064610E+01
  0.1939697E+02  0.5873935E+01 -0.2565759E+01  0.4694086E+02  0.2781856E+01  0.1691647E+02 -0.2565864E+01
  0.1959798E+02  0.3337978E+02 -0.1887846E+01  0.4367861E+02  0.2793040E+01  0.9613279E+02 -0.1887812E+01
  0.1979899E+02  0.3242172E+02 -0.1519353E+01  0.4038713E+02  0.2803788E+01  0.9337263E+02 -0.1519313E+01
  0.2000000E+02  0.3286019E+02 -0.1432876E+01  0.3706309E+02  0.2813999E+01  0.9463545E+02 -0.1432836E+01
