VARIABLES="w (rad/s)"
"abs(F   1   1)" "angle(F   1   1)"
"abs(F   1   2)" "angle(F   1   2)"
"abs(F   1   3)" "angle(F   1   3)"
Zone t="Diffraction force - beta =   0.000 deg",I=   100,F=POINT
  0.1000000E+00  0.2348096E+00 -0.1570765E+01  0.2554970E+03 -0.1307633E-07  0.6762797E+00 -0.1570812E+01
  0.3010101E+00  0.2125964E+01 -0.1570802E+01  0.2538629E+03 -0.1080882E-05  0.6123018E+01 -0.1570798E+01
  0.5020202E+00  0.5906394E+01 -0.1570796E+01  0.2505943E+03 -0.8252677E-05  0.1701112E+02 -0.1570798E+01
  0.7030303E+00  0.1159003E+02 -0.1570795E+01  0.2457258E+03 -0.3106396E-04  0.3338065E+02 -0.1570796E+01
  0.9040404E+00  0.1913765E+02 -0.1570793E+01  0.2392755E+03 -0.8269872E-04  0.5511865E+02 -0.1570793E+01
  0.1105051E+01  0.2850514E+02 -0.1570785E+01  0.2312812E+03 -0.1785005E-03  0.8209804E+02 -0.1570785E+01
  0.1306061E+01  0.3966997E+02 -0.1570767E+01  0.2218029E+03 -0.3342971E-03  0.1142539E+03 -0.1570767E+01
  0.1507071E+01  0.5259825E+02 -0.1570727E+01  0.2108986E+03 -0.5646641E-03  0.1514886E+03 -0.1570727E+01
  0.1708081E+01  0.6722073E+02 -0.1570651E+01  0.1986163E+03 -0.8803828E-03  0.1936031E+03 -0.1570651E+01
  0.1909091E+01  0.8354257E+02 -0.1570517E+01  0.1850778E+03 -0.1287340E-02  0.2406118E+03 -0.1570517E+01
  0.2110101E+01  0.1014505E+03 -0.1570294E+01  0.1703107E+03 -0.1782766E-02  0.2921881E+03 -0.1570294E+01
  0.2311111E+01  0.1209679E+03 -0.1569942E+01  0.1544478E+03 -0.2357325E-02  0.3484004E+03 -0.1569942E+01
  0.2512121E+01  0.1420099E+03 -0.1569411E+01  0.1375650E+03 -0.2987935E-02  0.4090030E+03 -0.1569411E+01
  0.2713131E+01  0.1645115E+03 -0.1568636E+01  0.1197142E+03 -0.3642054E-02  0.4738101E+03 -0.1568636E+01
  0.2914141E+01  0.1885243E+03 -0.1567539E+01  0.1010519E+03 -0.4278989E-02  0.5429688E+03 -0.1567540E+01
  0.3115151E+01  0.2139632E+03 -0.1566027E+01  0.8166223E+02 -0.4832582E-02  0.6162347E+03 -0.1566028E+01
  0.3316161E+01  0.2407193E+03 -0.1563990E+01  0.6153096E+02 -0.5236359E-02  0.6932927E+03 -0.1563989E+01
  0.3517171E+01  0.2689148E+03 -0.1561294E+01  0.4084262E+02 -0.5398510E-02  0.7744981E+03 -0.1561294E+01
  0.3718182E+01  0.2985360E+03 -0.1557791E+01  0.1974760E+02 -0.5133939E-02  0.8598105E+03 -0.1557791E+01
  0.3919192E+01  0.3294504E+03 -0.1553310E+01  0.1741413E+01  0.3133460E+01  0.9488448E+03 -0.1553311E+01
  0.4120202E+01  0.3616528E+03 -0.1547655E+01  0.2362305E+02  0.3137335E+01  0.1041590E+04 -0.1547655E+01
  0.4321212E+01  0.3952531E+03 -0.1540595E+01  0.4573453E+02  0.3139035E+01  0.1138364E+04 -0.1540595E+01
  0.4522222E+01  0.4303078E+03 -0.1531866E+01  0.6789145E+02  0.3141376E+01  0.1239318E+04 -0.1531866E+01
  0.4723232E+01  0.4667626E+03 -0.1521182E+01  0.8995433E+02 -0.3138783E+01  0.1344310E+04 -0.1521183E+01
  0.4924242E+01  0.5044176E+03 -0.1508240E+01  0.1119162E+03 -0.3134891E+01  0.1452759E+04 -0.1508240E+01
  0.5125252E+01  0.5432128E+03 -0.1492680E+01  0.1337523E+03 -0.3129947E+01  0.1564487E+04 -0.1492680E+01
  0.5326262E+01  0.5831955E+03 -0.1474081E+01  0.1552463E+03 -0.3124064E+01  0.1679639E+04 -0.1474082E+01
  0.5527273E+01  0.6243511E+03 -0.1451969E+01  0.1762061E+03 -0.3117228E+01  0.1798170E+04 -0.1451969E+01
  0.5728283E+01  0.6663810E+03 -0.1425838E+01  0.1963686E+03 -0.3109406E+01  0.1919215E+04 -0.1425839E+01
  0.5929293E+01  0.7088402E+03 -0.1395191E+01  0.2155284E+03 -0.3100599E+01  0.2041496E+04 -0.1395191E+01
  0.6130303E+01  0.7509532E+03 -0.1359561E+01  0.2336380E+03 -0.3090861E+01  0.2162785E+04 -0.1359561E+01
  0.6331313E+01  0.7918026E+03 -0.1318502E+01  0.2506470E+03 -0.3080231E+01  0.2280429E+04 -0.1318502E+01
  0.6532323E+01  0.8303375E+03 -0.1271652E+01  0.2663350E+03 -0.3068946E+01  0.2391408E+04 -0.1271652E+01
  0.6733334E+01  0.8651943E+03 -0.1218742E+01  0.2805191E+03 -0.3057130E+01  0.2491795E+04 -0.1218743E+01
  0.6934343E+01  0.8947900E+03 -0.1159763E+01  0.2929841E+03 -0.3045022E+01  0.2577026E+04 -0.1159762E+01
  0.7135354E+01  0.9174487E+03 -0.1094989E+01  0.3036530E+03 -0.3032810E+01  0.2642278E+04 -0.1094989E+01
  0.7336363E+01  0.9311302E+03 -0.1025227E+01  0.3123573E+03 -0.3020804E+01  0.2681681E+04 -0.1025228E+01
  0.7537374E+01  0.9342525E+03 -0.9517627E+00  0.3190500E+03 -0.3009400E+01  0.2690676E+04 -0.9517623E+00
  0.7738384E+01  0.9258458E+03 -0.8761480E+00  0.3237943E+03 -0.2998724E+01  0.2666456E+04 -0.8761481E+00
  0.7939394E+01  0.9058046E+03 -0.8003324E+00  0.3265712E+03 -0.2989112E+01  0.2608733E+04 -0.8003328E+00
  0.8140405E+01  0.8750897E+03 -0.7262721E+00  0.3274998E+03 -0.2980771E+01  0.2520272E+04 -0.7262729E+00
  0.8341414E+01  0.8353466E+03 -0.6558604E+00  0.3266834E+03 -0.2973913E+01  0.2405808E+04 -0.6558610E+00
  0.8542424E+01  0.7888003E+03 -0.5904847E+00  0.3242380E+03 -0.2968715E+01  0.2271754E+04 -0.5904844E+00
  0.8743435E+01  0.7377612E+03 -0.5314521E+00  0.3203070E+03 -0.2965467E+01  0.2124757E+04 -0.5314503E+00
  0.8944445E+01  0.6844609E+03 -0.4790991E+00  0.3150819E+03 -0.2964152E+01  0.1971249E+04 -0.4791001E+00
  0.9145455E+01  0.6307690E+03 -0.4340375E+00  0.3086831E+03 -0.2965066E+01  0.1816611E+04 -0.4340374E+00
  0.9346465E+01  0.5781707E+03 -0.3959256E+00  0.3013474E+03 -0.2968115E+01  0.1665128E+04 -0.3959269E+00
  0.9547475E+01  0.5276091E+03 -0.3642979E+00  0.2932392E+03 -0.2973231E+01  0.1519508E+04 -0.3642994E+00
  0.9748485E+01  0.4796682E+03 -0.3388087E+00  0.2844985E+03 -0.2980441E+01  0.1381437E+04 -0.3388078E+00
  0.9949495E+01  0.4347856E+03 -0.3194175E+00  0.2752641E+03 -0.2989924E+01  0.1252170E+04 -0.3194167E+00
  0.1015051E+02  0.3930864E+03 -0.3055332E+00  0.2656700E+03 -0.3001627E+01  0.1132078E+04 -0.3055322E+00
  0.1035151E+02  0.3545662E+03 -0.2964817E+00  0.2558021E+03 -0.3015497E+01  0.1021141E+04 -0.2964844E+00
  0.1055252E+02  0.3191608E+03 -0.2919298E+00  0.2457902E+03 -0.3031417E+01  0.9191721E+03 -0.2919316E+00
  0.1075354E+02  0.2867312E+03 -0.2914704E+00  0.2357302E+03 -0.3049280E+01  0.8257735E+03 -0.2914730E+00
  0.1095455E+02  0.2570923E+03 -0.2946365E+00  0.2257009E+03 -0.3069052E+01  0.7404127E+03 -0.2946363E+00
  0.1115556E+02  0.2300100E+03 -0.3008562E+00  0.2157643E+03 -0.3090679E+01  0.6624161E+03 -0.3008551E+00
  0.1135657E+02  0.2053237E+03 -0.3102691E+00  0.2059654E+03 -0.3114079E+01  0.5913203E+03 -0.3102715E+00
  0.1155758E+02  0.1829326E+03 -0.3230298E+00  0.1963342E+03 -0.3139475E+01  0.5268340E+03 -0.3230303E+00
  0.1175859E+02  0.1626128E+03 -0.3386747E+00  0.1869313E+03  0.3116635E+01  0.4683117E+03 -0.3386759E+00
  0.1195960E+02  0.1441438E+03 -0.3564186E+00  0.1777733E+03  0.3087907E+01  0.4151238E+03 -0.3564240E+00
  0.1216061E+02  0.1273591E+03 -0.3765539E+00  0.1688939E+03  0.3057700E+01  0.3667823E+03 -0.3765553E+00
  0.1236162E+02  0.1121813E+03 -0.3990392E+00  0.1602771E+03  0.3026158E+01  0.3230710E+03 -0.3990412E+00
  0.1256263E+02  0.9840467E+02 -0.4228766E+00  0.1519712E+03  0.2993103E+01  0.2833935E+03 -0.4228681E+00
  0.1276364E+02  0.8593948E+02 -0.4486146E+00  0.1439820E+03  0.2958569E+01  0.2474942E+03 -0.4486086E+00
  0.1296465E+02  0.7466714E+02 -0.4764034E+00  0.1362968E+03  0.2922925E+01  0.2150300E+03 -0.4763981E+00
  0.1316566E+02  0.6454240E+02 -0.5061486E+00  0.1289539E+03  0.2885917E+01  0.1858711E+03 -0.5061501E+00
  0.1336667E+02  0.5541283E+02 -0.5376170E+00  0.1219230E+03  0.2847768E+01  0.1595781E+03 -0.5376166E+00
  0.1356768E+02  0.4724228E+02 -0.5700561E+00  0.1152130E+03  0.2808534E+01  0.1360468E+03 -0.5700554E+00
  0.1376869E+02  0.3987111E+02 -0.6039821E+00  0.1088410E+03  0.2768539E+01  0.1148189E+03 -0.6039712E+00
  0.1396970E+02  0.3320543E+02 -0.6393450E+00  0.1027968E+03  0.2727862E+01  0.9562289E+02 -0.6393580E+00
  0.1417071E+02  0.2730310E+02 -0.6753429E+00  0.9708311E+02  0.2686984E+01  0.7862380E+02 -0.6753446E+00
  0.1437172E+02  0.2200236E+02 -0.7125822E+00  0.9185446E+02  0.2646551E+01  0.6335801E+02 -0.7125770E+00
  0.1457273E+02  0.1723350E+02 -0.7491946E+00  0.8705917E+02  0.2609151E+01  0.4962406E+02 -0.7491934E+00
  0.1477374E+02  0.1297820E+02 -0.7862529E+00  0.8296085E+02  0.2581301E+01  0.3736729E+02 -0.7862175E+00
  0.1497475E+02  0.9250873E+01 -0.8189060E+00  0.8131998E+02  0.2610445E+01  0.2663416E+02 -0.8188918E+00
  0.1517576E+02  0.5926866E+01 -0.8466258E+00  0.5338045E+02  0.2166413E+01  0.1706058E+02 -0.8465655E+00
  0.1537677E+02  0.3015559E+01 -0.8455775E+00  0.6348289E+02  0.2308695E+01  0.8677642E+01 -0.8456211E+00
  0.1557778E+02  0.5151530E+00 -0.3427071E+00  0.6102498E+02  0.2284639E+01  0.1477235E+01 -0.3394130E+00
  0.1577879E+02  0.1894358E+01  0.1950860E+01  0.5784333E+02  0.2243394E+01  0.5462821E+01  0.1951139E+01
  0.1597980E+02  0.3879400E+01  0.1984458E+01  0.5451233E+02  0.2194799E+01  0.1117945E+02  0.1984530E+01
  0.1618081E+02  0.5617580E+01  0.1957667E+01  0.5121170E+02  0.2142865E+01  0.1618542E+02  0.1957694E+01
  0.1638182E+02  0.7084135E+01  0.1914945E+01  0.4801226E+02  0.2088644E+01  0.2040926E+02  0.1914965E+01
  0.1658283E+02  0.8405493E+01  0.1871216E+01  0.4496960E+02  0.2030896E+01  0.2421408E+02  0.1871227E+01
  0.1678384E+02  0.9515141E+01  0.1824743E+01  0.4214981E+02  0.1972971E+01  0.2741043E+02  0.1824749E+01
  0.1698485E+02  0.1047854E+02  0.1776002E+01  0.3953413E+02  0.1914110E+01  0.3018451E+02  0.1776006E+01
  0.1718586E+02  0.1129893E+02  0.1724658E+01  0.3708873E+02  0.1854117E+01  0.3254690E+02  0.1724664E+01
  0.1738687E+02  0.1195876E+02  0.1671921E+01  0.3480560E+02  0.1793078E+01  0.3444735E+02  0.1671925E+01
  0.1758788E+02  0.1255203E+02  0.1619151E+01  0.3269424E+02  0.1730950E+01  0.3615572E+02  0.1619154E+01
  0.1778889E+02  0.1303749E+02  0.1566542E+01  0.3069039E+02  0.1668419E+01  0.3755369E+02  0.1566544E+01
  0.1798990E+02  0.1345538E+02  0.1512666E+01  0.2881484E+02  0.1605634E+01  0.3875704E+02  0.1512668E+01
  0.1819091E+02  0.1385058E+02  0.1458456E+01  0.2699761E+02  0.1540797E+01  0.3989508E+02  0.1458457E+01
  0.1839192E+02  0.1430307E+02  0.1408041E+01  0.2530974E+02  0.1474822E+01  0.4119799E+02  0.1408042E+01
  0.1859293E+02  0.1486899E+02  0.1363716E+01  0.2372057E+02  0.1408120E+01  0.4282762E+02  0.1363719E+01
  0.1879394E+02  0.1549661E+02  0.1325818E+01  0.2222447E+02  0.1339193E+01  0.4463503E+02  0.1325821E+01
  0.1899495E+02  0.1665008E+02  0.1309946E+01  0.2083255E+02  0.1269147E+01  0.4795681E+02  0.1309950E+01
  0.1919596E+02  0.1931790E+02  0.1366575E+01  0.1951740E+02  0.1198793E+01  0.5563965E+02  0.1366578E+01
  0.1939697E+02  0.2621737E+02  0.1759837E+01  0.1828751E+02  0.1128086E+01  0.7550836E+02  0.1759839E+01
  0.1959798E+02  0.1040821E+02 -0.3124144E+01  0.1712748E+02  0.1057217E+01  0.2997222E+02 -0.3124165E+01
  0.1979899E+02  0.2159260E+01  0.6886640E+00  0.1604042E+02  0.9871386E+00  0.6222800E+01  0.6885513E+00
  0.2000000E+02  0.5456350E+01  0.5953019E+00  0.1502111E+02  0.9172369E+00  0.1571846E+02  0.5952983E+00
