VARIABLES="w (rad/s)"
"abs(F   1   1)" "angle(F   1   1)"
"abs(F   1   2)" "angle(F   1   2)"
"abs(F   1   3)" "angle(F   1   3)"
Zone t="FKforce - beta =   0.000",I=   100,F=POINT
  0.1000000E+00  0.1403500E+00 -0.1570744E+01  0.2555594E+03  0.2178010E-11  0.4042275E+00 -0.1570822E+01
  0.3010101E+00  0.1270383E+01 -0.1570806E+01  0.2544291E+03 -0.5742317E-10  0.3658865E+01 -0.1570800E+01
  0.5020202E+00  0.3526398E+01 -0.1570796E+01  0.2521721E+03 -0.9394584E-10  0.1015650E+02 -0.1570799E+01
  0.7030303E+00  0.6894648E+01 -0.1570796E+01  0.2488041E+03 -0.1394341E-09  0.1985751E+02 -0.1570797E+01
  0.9040404E+00  0.1135460E+02 -0.1570796E+01  0.2443431E+03 -0.2553729E-09  0.3270271E+02 -0.1570796E+01
  0.1105051E+01  0.1687916E+02 -0.1570796E+01  0.2388164E+03 -0.1111427E-09  0.4861417E+02 -0.1570796E+01
  0.1306061E+01  0.2343480E+02 -0.1570797E+01  0.2322570E+03  0.7618772E-09  0.6749518E+02 -0.1570796E+01
  0.1507071E+01  0.3098179E+02 -0.1570796E+01  0.2247043E+03  0.2694029E-10  0.8923130E+02 -0.1570796E+01
  0.1708081E+01  0.3947453E+02 -0.1570796E+01  0.2162023E+03  0.6504542E-09  0.1136915E+03 -0.1570796E+01
  0.1909091E+01  0.4886191E+02 -0.1570796E+01  0.2068024E+03  0.9006886E-11  0.1407286E+03 -0.1570796E+01
  0.2110101E+01  0.5908774E+02 -0.1570796E+01  0.1965594E+03  0.7580998E-10  0.1701798E+03 -0.1570796E+01
  0.2311111E+01  0.7009081E+02 -0.1570796E+01  0.1855329E+03 -0.1927571E-08  0.2018702E+03 -0.1570796E+01
  0.2512121E+01  0.8180594E+02 -0.1570796E+01  0.1737878E+03  0.1682715E-08  0.2356109E+03 -0.1570796E+01
  0.2713131E+01  0.9416370E+02 -0.1570796E+01  0.1613918E+03 -0.1973534E-08  0.2712029E+03 -0.1570796E+01
  0.2914141E+01  0.1070915E+03 -0.1570796E+01  0.1484165E+03 -0.3237931E-08  0.3084359E+03 -0.1570796E+01
  0.3115151E+01  0.1205142E+03 -0.1570796E+01  0.1349352E+03 -0.8282401E-10  0.3470943E+03 -0.1570796E+01
  0.3316161E+01  0.1343537E+03 -0.1570796E+01  0.1210238E+03 -0.1185087E-08  0.3869527E+03 -0.1570796E+01
  0.3517171E+01  0.1485298E+03 -0.1570796E+01  0.1067633E+03 -0.1320699E-07  0.4277820E+03 -0.1570796E+01
  0.3718182E+01  0.1629624E+03 -0.1570796E+01  0.9222923E+02 -0.1118849E-07  0.4693498E+03 -0.1570796E+01
  0.3919192E+01  0.1775697E+03 -0.1570796E+01  0.7750250E+02 -0.2403336E-09  0.5114194E+03 -0.1570796E+01
  0.4120202E+01  0.1922701E+03 -0.1570796E+01  0.6266372E+02  0.5707096E-08  0.5537571E+03 -0.1570796E+01
  0.4321212E+01  0.2069808E+03 -0.1570796E+01  0.4779138E+02 -0.8886186E-08  0.5961282E+03 -0.1570796E+01
  0.4522222E+01  0.2216233E+03 -0.1570796E+01  0.3296455E+02  0.5571342E-07  0.6382958E+03 -0.1570796E+01
  0.4723232E+01  0.2361167E+03 -0.1570796E+01  0.1826003E+02 -0.1211839E-06  0.6800383E+03 -0.1570796E+01
  0.4924242E+01  0.2503844E+03 -0.1570796E+01  0.3752473E+01 -0.3276095E-07  0.7211309E+03 -0.1570796E+01
  0.5125252E+01  0.2643507E+03 -0.1570796E+01  0.1048369E+02 -0.3141592E+01  0.7613525E+03 -0.1570796E+01
  0.5326262E+01  0.2779443E+03 -0.1570796E+01  0.2438205E+02  0.3141593E+01  0.8005034E+03 -0.1570796E+01
  0.5527273E+01  0.2910947E+03 -0.1570796E+01  0.3787381E+02  0.3141593E+01  0.8383779E+03 -0.1570796E+01
  0.5728283E+01  0.3037377E+03 -0.1570796E+01  0.5089541E+02  0.3141593E+01  0.8747881E+03 -0.1570796E+01
  0.5929293E+01  0.3158112E+03 -0.1570796E+01  0.6339024E+02  0.3141593E+01  0.9095593E+03 -0.1570796E+01
  0.6130303E+01  0.3272565E+03 -0.1570796E+01  0.7530220E+02 -0.3141593E+01  0.9425243E+03 -0.1570796E+01
  0.6331313E+01  0.3380217E+03 -0.1570796E+01  0.8658187E+02  0.3141593E+01  0.9735272E+03 -0.1570796E+01
  0.6532323E+01  0.3480589E+03 -0.1570796E+01  0.9718247E+02 -0.3141593E+01  0.1002434E+04 -0.1570796E+01
  0.6733334E+01  0.3573232E+03 -0.1570796E+01  0.1070646E+03  0.3141593E+01  0.1029116E+04 -0.1570796E+01
  0.6934343E+01  0.3657775E+03 -0.1570796E+01  0.1161935E+03  0.3141593E+01  0.1053461E+04 -0.1570796E+01
  0.7135354E+01  0.3733878E+03 -0.1570796E+01  0.1245390E+03  0.3141593E+01  0.1075379E+04 -0.1570796E+01
  0.7336363E+01  0.3801260E+03 -0.1570796E+01  0.1320758E+03 -0.3141593E+01  0.1094784E+04 -0.1570796E+01
  0.7537374E+01  0.3859691E+03 -0.1570796E+01  0.1387840E+03  0.3141593E+01  0.1111616E+04 -0.1570796E+01
  0.7738384E+01  0.3909001E+03 -0.1570796E+01  0.1446505E+03 -0.3141593E+01  0.1125813E+04 -0.1570796E+01
  0.7939394E+01  0.3949068E+03 -0.1570796E+01  0.1496647E+03 -0.3141593E+01  0.1137352E+04 -0.1570796E+01
  0.8140405E+01  0.3979815E+03 -0.1570796E+01  0.1538244E+03  0.3141593E+01  0.1146208E+04 -0.1570796E+01
  0.8341414E+01  0.4001216E+03 -0.1570796E+01  0.1571304E+03  0.3141593E+01  0.1152371E+04 -0.1570796E+01
  0.8542424E+01  0.4013310E+03 -0.1570796E+01  0.1595880E+03 -0.3141593E+01  0.1155853E+04 -0.1570796E+01
  0.8743435E+01  0.4016167E+03 -0.1570796E+01  0.1612095E+03  0.3141593E+01  0.1156671E+04 -0.1570796E+01
  0.8944445E+01  0.4009894E+03 -0.1570796E+01  0.1620081E+03 -0.3141593E+01  0.1154869E+04 -0.1570796E+01
  0.9145455E+01  0.3994682E+03 -0.1570796E+01  0.1620055E+03 -0.3141593E+01  0.1150483E+04 -0.1570796E+01
  0.9346465E+01  0.3970700E+03 -0.1570796E+01  0.1612234E+03 -0.3141593E+01  0.1143577E+04 -0.1570796E+01
  0.9547475E+01  0.3938200E+03 -0.1570796E+01  0.1596907E+03 -0.3141593E+01  0.1134217E+04 -0.1570796E+01
  0.9748485E+01  0.3897482E+03 -0.1570796E+01  0.1574371E+03  0.3141593E+01  0.1122486E+04 -0.1570796E+01
  0.9949495E+01  0.3848824E+03 -0.1570796E+01  0.1544976E+03  0.3141593E+01  0.1108472E+04 -0.1570796E+01
  0.1015051E+02  0.3792576E+03 -0.1570796E+01  0.1509076E+03 -0.3141593E+01  0.1092271E+04 -0.1570796E+01
  0.1035151E+02  0.3729105E+03 -0.1570796E+01  0.1467072E+03 -0.3141593E+01  0.1073994E+04 -0.1570796E+01
  0.1055252E+02  0.3658804E+03 -0.1570796E+01  0.1419383E+03 -0.3141593E+01  0.1053746E+04 -0.1570796E+01
  0.1075354E+02  0.3582055E+03 -0.1570796E+01  0.1366432E+03  0.3141593E+01  0.1031641E+04 -0.1570796E+01
  0.1095455E+02  0.3499315E+03 -0.1570796E+01  0.1308683E+03  0.3141593E+01  0.1007810E+04 -0.1570796E+01
  0.1115556E+02  0.3411011E+03 -0.1570796E+01  0.1246585E+03  0.3141593E+01  0.9823762E+03 -0.1570796E+01
  0.1135657E+02  0.3317588E+03 -0.1570796E+01  0.1180617E+03  0.3141593E+01  0.9554706E+03 -0.1570796E+01
  0.1155758E+02  0.3219504E+03 -0.1570796E+01  0.1111247E+03 -0.3141593E+01  0.9272220E+03 -0.1570796E+01
  0.1175859E+02  0.3117238E+03 -0.1570796E+01  0.1038959E+03 -0.3141593E+01  0.8977679E+03 -0.1570796E+01
  0.1195960E+02  0.3011236E+03 -0.1570796E+01  0.9642354E+02 -0.3141593E+01  0.8672423E+03 -0.1570796E+01
  0.1216061E+02  0.2901980E+03 -0.1570796E+01  0.8875481E+02  0.3141593E+01  0.8357730E+03 -0.1570796E+01
  0.1236162E+02  0.2789923E+03 -0.1570796E+01  0.8093670E+02  0.3141593E+01  0.8035002E+03 -0.1570796E+01
  0.1256263E+02  0.2675540E+03 -0.1570796E+01  0.7301642E+02  0.3141593E+01  0.7705538E+03 -0.1570796E+01
  0.1276364E+02  0.2559253E+03 -0.1570796E+01  0.6503783E+02  0.3141593E+01  0.7370649E+03 -0.1570796E+01
  0.1296465E+02  0.2441530E+03 -0.1570796E+01  0.5704612E+02 -0.3141593E+01  0.7031600E+03 -0.1570796E+01
  0.1316566E+02  0.2322793E+03 -0.1570796E+01  0.4908325E+02  0.3141593E+01  0.6689645E+03 -0.1570796E+01
  0.1336667E+02  0.2203466E+03 -0.1570796E+01  0.4119001E+02 -0.3141593E+01  0.6345978E+03 -0.1570796E+01
  0.1356768E+02  0.2083953E+03 -0.1570796E+01  0.3340596E+02  0.3141593E+01  0.6001760E+03 -0.1570796E+01
  0.1376869E+02  0.1964642E+03 -0.1570796E+01  0.2576776E+02 -0.3141593E+01  0.5658145E+03 -0.1570796E+01
  0.1396970E+02  0.1845901E+03 -0.1570796E+01  0.1831069E+02  0.3141593E+01  0.5316185E+03 -0.1570796E+01
  0.1417071E+02  0.1728096E+03 -0.1570796E+01  0.1106744E+02 -0.3141592E+01  0.4976904E+03 -0.1570796E+01
  0.1437172E+02  0.1611565E+03 -0.1570796E+01  0.4068659E+01 -0.3141592E+01  0.4641283E+03 -0.1570796E+01
  0.1457273E+02  0.1496621E+03 -0.1570796E+01  0.2657573E+01 -0.1385907E-05  0.4310246E+03 -0.1570796E+01
  0.1477374E+02  0.1383575E+03 -0.1570796E+01  0.9085537E+01  0.6586014E-08  0.3984652E+03 -0.1570796E+01
  0.1497475E+02  0.1272692E+03 -0.1570796E+01  0.1519206E+02  0.4370156E-07  0.3665316E+03 -0.1570796E+01
  0.1517576E+02  0.1164244E+03 -0.1570796E+01  0.2095638E+02 -0.3861146E-06  0.3352980E+03 -0.1570796E+01
  0.1537677E+02  0.1058461E+03 -0.1570796E+01  0.2636020E+02 -0.1109824E-07  0.3048343E+03 -0.1570796E+01
  0.1557778E+02  0.9555765E+02 -0.1570796E+01  0.3138811E+02 -0.7338797E-07  0.2752024E+03 -0.1570796E+01
  0.1577879E+02  0.8557877E+02 -0.1570796E+01  0.3602656E+02  0.1623766E-08  0.2464636E+03 -0.1570796E+01
  0.1597980E+02  0.7592728E+02 -0.1570796E+01  0.4026544E+02 -0.9685511E-08  0.2186673E+03 -0.1570796E+01
  0.1618081E+02  0.6661972E+02 -0.1570796E+01  0.4409617E+02  0.1466406E-07  0.1918612E+03 -0.1570796E+01
  0.1638182E+02  0.5767008E+02 -0.1570796E+01  0.4751320E+02 -0.7773158E-07  0.1660866E+03 -0.1570796E+01
  0.1658283E+02  0.4909150E+02 -0.1570796E+01  0.5051294E+02  0.2760987E-08  0.1413805E+03 -0.1570796E+01
  0.1678384E+02  0.4089421E+02 -0.1570796E+01  0.5309443E+02  0.1252528E-08  0.1177719E+03 -0.1570796E+01
  0.1698485E+02  0.3308737E+02 -0.1570796E+01  0.5525885E+02  0.3116113E-07  0.9528848E+02 -0.1570796E+01
  0.1718586E+02  0.2567838E+02 -0.1570796E+01  0.5700930E+02  0.2532947E-07  0.7395074E+02 -0.1570796E+01
  0.1738687E+02  0.1867303E+02 -0.1570796E+01  0.5835128E+02 -0.6484101E-07  0.5377538E+02 -0.1570796E+01
  0.1758788E+02  0.1207543E+02 -0.1570796E+01  0.5929215E+02 -0.3838435E-07  0.3477437E+02 -0.1570797E+01
  0.1778889E+02  0.5888237E+01 -0.1570796E+01  0.5984084E+02  0.4932845E-08  0.1695543E+02 -0.1570796E+01
  0.1798990E+02  0.1128115E+00 -0.1570796E+01  0.6000885E+02 -0.3546579E-07  0.3224486E+00 -0.1570796E+01
  0.1819091E+02  0.5250992E+01  0.1570797E+01  0.5980854E+02  0.1549022E-08  0.1512512E+02  0.1570796E+01
  0.1839192E+02  0.1020452E+02  0.1570797E+01  0.5925433E+02 -0.1988617E-07  0.2939096E+02  0.1570796E+01
  0.1859293E+02  0.1475032E+02  0.1570796E+01  0.5836192E+02 -0.2706739E-07  0.4248263E+02  0.1570796E+01
  0.1879394E+02  0.1889219E+02  0.1570796E+01  0.5714832E+02  0.1679325E-07  0.5441106E+02  0.1570796E+01
  0.1899495E+02  0.2263515E+02  0.1570796E+01  0.5563217E+02  0.2118551E-08  0.6519064E+02  0.1570796E+01
  0.1919596E+02  0.2598502E+02  0.1570796E+01  0.5383266E+02 -0.1082514E-07  0.7483800E+02  0.1570796E+01
  0.1939697E+02  0.2894886E+02  0.1570796E+01  0.5177034E+02 -0.1705236E-07  0.8337325E+02  0.1570796E+01
  0.1959798E+02  0.3153451E+02  0.1570796E+01  0.4946682E+02 -0.3915877E-07  0.9082016E+02  0.1570796E+01
  0.1979899E+02  0.3375105E+02  0.1570796E+01  0.4694418E+02 -0.2879409E-07  0.9720300E+02  0.1570796E+01
  0.2000000E+02  0.3560785E+02  0.1570796E+01  0.4422513E+02 -0.3658250E-07  0.1025505E+03  0.1570796E+01
