 VARIABLES="Time (s)"
"AddedMass    1" "IRF    1"
"AddedMass    2" "IRF    2"
"AddedMass    3" "IRF    3"
Zone t="DoF    1",I=   800,F=POINT
  0.0000000E+00  0.5515696E+01  0.2480734E+03 -0.4933455E-07 -0.1931868E-04  0.1588603E+02  0.7144537E+03
  0.1000000E-01  0.5515696E+01  0.2471775E+03 -0.4933455E-07 -0.1899128E-04  0.1588603E+02  0.7118734E+03
  0.2000000E-01  0.5515696E+01  0.2444973E+03 -0.4933455E-07 -0.1802100E-04  0.1588603E+02  0.7041547E+03
  0.3000000E-01  0.5515696E+01  0.2400553E+03 -0.4933455E-07 -0.1644320E-04  0.1588603E+02  0.6913616E+03
  0.4000000E-01  0.5515696E+01  0.2338886E+03 -0.4933455E-07 -0.1431538E-04  0.1588603E+02  0.6736021E+03
  0.5000000E-01  0.5515696E+01  0.2260493E+03 -0.4933455E-07 -0.1171521E-04  0.1588603E+02  0.6510244E+03
  0.6000000E-01  0.5515696E+01  0.2166025E+03 -0.4933455E-07 -0.8737738E-05  0.1588603E+02  0.6238174E+03
  0.7000000E-01  0.5515696E+01  0.2056269E+03 -0.4933455E-07 -0.5492045E-05  0.1588603E+02  0.5922081E+03
  0.8000000E-01  0.5515696E+01  0.1932139E+03 -0.4933455E-07 -0.2097356E-05  0.1588603E+02  0.5564585E+03
  0.9000000E-01  0.5515696E+01  0.1794662E+03 -0.4933455E-07  0.1321178E-05  0.1588603E+02  0.5168648E+03
  0.9999999E-01  0.5515696E+01  0.1644967E+03 -0.4933455E-07  0.4636933E-05  0.1588603E+02  0.4737527E+03
  0.1100000E+00  0.5515696E+01  0.1484281E+03 -0.4933455E-07  0.7726333E-05  0.1588603E+02  0.4274754E+03
  0.1200000E+00  0.5515696E+01  0.1313915E+03 -0.4933455E-07  0.1047327E-04  0.1588603E+02  0.3784099E+03
  0.1300000E+00  0.5515696E+01  0.1135246E+03 -0.4933455E-07  0.1277327E-04  0.1588603E+02  0.3269534E+03
  0.1400000E+00  0.5515696E+01  0.9497114E+02 -0.4933455E-07  0.1453729E-04  0.1588603E+02  0.2735192E+03
  0.1500000E+00  0.5515696E+01  0.7587888E+02 -0.4933455E-07  0.1569495E-04  0.1588603E+02  0.2185336E+03
  0.1600000E+00  0.5515696E+01  0.5639888E+02 -0.4933455E-07  0.1619712E-04  0.1588603E+02  0.1624312E+03
  0.1700000E+00  0.5515696E+01  0.3668374E+02 -0.4933455E-07  0.1601786E-04  0.1588603E+02  0.1056516E+03
  0.1800000E+00  0.5515696E+01  0.1688641E+02 -0.4933455E-07  0.1515544E-04  0.1588603E+02  0.4863519E+02
  0.1900000E+00  0.5515696E+01 -0.2841353E+01 -0.4933455E-07  0.1363260E-04  0.1588603E+02 -0.8180820E+01
  0.2000000E+00  0.5515696E+01 -0.2234998E+02 -0.4933455E-07  0.1149593E-04  0.1588603E+02 -0.6436573E+02
  0.2100000E+00  0.5515696E+01 -0.4149363E+02 -0.4933455E-07  0.8814416E-05  0.1588603E+02 -0.1194995E+03
  0.2200000E+00  0.5515696E+01 -0.6013120E+02 -0.4933455E-07  0.5677252E-05  0.1588603E+02 -0.1731759E+03
  0.2300000E+00  0.5515696E+01 -0.7812754E+02 -0.4933455E-07  0.2190882E-05  0.1588603E+02 -0.2250054E+03
  0.2400000E+00  0.5515696E+01 -0.9535454E+02 -0.4933455E-07 -0.1524568E-05  0.1588603E+02 -0.2746194E+03
  0.2500000E+00  0.5515696E+01 -0.1116919E+03 -0.4933455E-07 -0.5339261E-05  0.1588603E+02 -0.3216712E+03
  0.2600000E+00  0.5515696E+01 -0.1270284E+03 -0.4933455E-07 -0.9118059E-05  0.1588603E+02 -0.3658404E+03
  0.2700000E+00  0.5515696E+01 -0.1412623E+03 -0.4933455E-07 -0.1272511E-04  0.1588603E+02 -0.4068344E+03
  0.2800000E+00  0.5515696E+01 -0.1543022E+03 -0.4933455E-07 -0.1602849E-04  0.1588603E+02 -0.4443895E+03
  0.2900000E+00  0.5515696E+01 -0.1660676E+03 -0.4933455E-07 -0.1890460E-04  0.1588603E+02 -0.4782743E+03
  0.3000000E+00  0.5515696E+01 -0.1764893E+03 -0.4933455E-07 -0.2124258E-04  0.1588603E+02 -0.5082892E+03
  0.3100000E+00  0.5515696E+01 -0.1855102E+03 -0.4933455E-07 -0.2294804E-04  0.1588603E+02 -0.5342692E+03
  0.3200000E+00  0.5515696E+01 -0.1930845E+03 -0.4933455E-07 -0.2394634E-04  0.1588603E+02 -0.5560835E+03
  0.3300000E+00  0.5515696E+01 -0.1991792E+03 -0.4933455E-07 -0.2418528E-04  0.1588603E+02 -0.5736364E+03
  0.3400000E+00  0.5515696E+01 -0.2037731E+03 -0.4933455E-07 -0.2363693E-04  0.1588603E+02 -0.5868674E+03
  0.3500000E+00  0.5515696E+01 -0.2068574E+03 -0.4933455E-07 -0.2229875E-04  0.1588603E+02 -0.5957507E+03
  0.3600000E+00  0.5515696E+01 -0.2084352E+03 -0.4933455E-07 -0.2019380E-04  0.1588603E+02 -0.6002952E+03
  0.3700000E+00  0.5515696E+01 -0.2085214E+03 -0.4933455E-07 -0.1737011E-04  0.1588603E+02 -0.6005436E+03
  0.3800000E+00  0.5515696E+01 -0.2071423E+03 -0.4933455E-07 -0.1389925E-04  0.1588603E+02 -0.5965720E+03
  0.3900000E+00  0.5515696E+01 -0.2043349E+03 -0.4933455E-07 -0.9874041E-05  0.1588603E+02 -0.5884872E+03
  0.4000000E+00  0.5515696E+01 -0.2001471E+03 -0.4933455E-07 -0.5405633E-05  0.1588603E+02 -0.5764267E+03
  0.4100000E+00  0.5515696E+01 -0.1946365E+03 -0.4933455E-07 -0.6199157E-06  0.1588603E+02 -0.5605569E+03
  0.4200000E+00  0.5515696E+01 -0.1878701E+03 -0.4933455E-07  0.4346467E-05  0.1588603E+02 -0.5410701E+03
  0.4300000E+00  0.5515696E+01 -0.1799233E+03 -0.4933455E-07  0.9350619E-05  0.1588603E+02 -0.5181830E+03
  0.4400000E+00  0.5515696E+01 -0.1708788E+03 -0.4933455E-07  0.1424794E-04  0.1588603E+02 -0.4921354E+03
  0.4500000E+00  0.5515696E+01 -0.1608271E+03 -0.4933455E-07  0.1889675E-04  0.1588603E+02 -0.4631869E+03
  0.4600000E+00  0.5515696E+01 -0.1498641E+03 -0.4933455E-07  0.2316290E-04  0.1588603E+02 -0.4316136E+03
  0.4700000E+00  0.5515696E+01 -0.1380909E+03 -0.4933455E-07  0.2692410E-04  0.1588603E+02 -0.3977071E+03
  0.4800000E+00  0.5515696E+01 -0.1256131E+03 -0.4933455E-07  0.3007364E-04  0.1588603E+02 -0.3617710E+03
  0.4900000E+00  0.5515696E+01 -0.1125391E+03 -0.4933455E-07  0.3252393E-04  0.1588603E+02 -0.3241182E+03
  0.5000000E+00  0.5515696E+01 -0.9898000E+02 -0.4933455E-07  0.3420912E-04  0.1588603E+02 -0.2850679E+03
  0.5100000E+00  0.5515696E+01 -0.8504783E+02 -0.4933455E-07  0.3508709E-04  0.1588603E+02 -0.2449432E+03
  0.5200000E+00  0.5515696E+01 -0.7085509E+02 -0.4933455E-07  0.3514069E-04  0.1588603E+02 -0.2040680E+03
  0.5300000E+00  0.5515696E+01 -0.5651369E+02 -0.4933455E-07  0.3437805E-04  0.1588603E+02 -0.1627647E+03
  0.5400000E+00  0.5515696E+01 -0.4213389E+02 -0.4933455E-07  0.3283215E-04  0.1588603E+02 -0.1213508E+03
  0.5500000E+00  0.5515696E+01 -0.2782354E+02 -0.4933455E-07  0.3055951E-04  0.1588603E+02 -0.8013684E+02
  0.5600000E+00  0.5515696E+01 -0.1368732E+02 -0.4933455E-07  0.2763817E-04  0.1588603E+02 -0.3942430E+02
  0.5700000E+00  0.5515696E+01  0.1744203E+00 -0.4933455E-07  0.2416486E-04  0.1588603E+02  0.4978103E+00
  0.5800000E+00  0.5515696E+01  0.1366613E+02 -0.4933455E-07  0.2025176E-04  0.1588603E+02  0.3935422E+02
  0.5900000E+00  0.5515696E+01  0.2669782E+02 -0.4933455E-07  0.1602256E-04  0.1588603E+02  0.7688583E+02
  0.6000000E+00  0.5515696E+01  0.3918569E+02 -0.4933455E-07  0.1160836E-04  0.1588603E+02  0.1128512E+03
  0.6100000E+00  0.5515696E+01  0.5105277E+02 -0.4933455E-07  0.7143217E-05  0.1588603E+02  0.1470287E+03
  0.6200000E+00  0.5515696E+01  0.6222899E+02 -0.4933455E-07  0.2759822E-05  0.1588603E+02  0.1792167E+03
  0.6300000E+00  0.5515696E+01  0.7265221E+02 -0.4933455E-07 -0.1415034E-05  0.1588603E+02  0.2092360E+03
  0.6400000E+00  0.5515696E+01  0.8226811E+02 -0.4933455E-07 -0.5264436E-05  0.1588603E+02  0.2369302E+03
  0.6500000E+00  0.5515696E+01  0.9103043E+02 -0.4933455E-07 -0.8685133E-05  0.1588603E+02  0.2621661E+03
  0.6600000E+00  0.5515696E+01  0.9890121E+02 -0.4933455E-07 -0.1159075E-04  0.1588603E+02  0.2848344E+03
  0.6700000E+00  0.5515696E+01  0.1058507E+03 -0.4933455E-07 -0.1391447E-04  0.1588603E+02  0.3048495E+03
  0.6800000E+00  0.5515696E+01  0.1118577E+03 -0.4933455E-07 -0.1561092E-04  0.1588603E+02  0.3221502E+03
  0.6900000E+00  0.5515696E+01  0.1169089E+03 -0.4933455E-07 -0.1665737E-04  0.1588603E+02  0.3366979E+03
  0.7000000E+00  0.5515696E+01  0.1209988E+03 -0.4933455E-07 -0.1705418E-04  0.1588603E+02  0.3484775E+03
  0.7100000E+00  0.5515696E+01  0.1241302E+03 -0.4933455E-07 -0.1682440E-04  0.1588603E+02  0.3574960E+03
  0.7200000E+00  0.5515696E+01  0.1263127E+03 -0.4933455E-07 -0.1601260E-04  0.1588603E+02  0.3637821E+03
  0.7300000E+00  0.5515696E+01  0.1275631E+03 -0.4933455E-07 -0.1468297E-04  0.1588603E+02  0.3673835E+03
  0.7400000E+00  0.5515696E+01  0.1279049E+03 -0.4933455E-07 -0.1291683E-04  0.1588603E+02  0.3683681E+03
  0.7500000E+00  0.5515696E+01  0.1273674E+03 -0.4933455E-07 -0.1080950E-04  0.1588603E+02  0.3668207E+03
  0.7600000E+00  0.5515696E+01  0.1259858E+03 -0.4933455E-07 -0.8466757E-05  0.1588603E+02  0.3628419E+03
  0.7700000E+00  0.5515696E+01  0.1238001E+03 -0.4933455E-07 -0.6000919E-05  0.1588603E+02  0.3565473E+03
  0.7800000E+00  0.5515696E+01  0.1208547E+03 -0.4933455E-07 -0.3526793E-05  0.1588603E+02  0.3480650E+03
  0.7900000E+00  0.5515696E+01  0.1171983E+03 -0.4933455E-07 -0.1157551E-05  0.1588603E+02  0.3375342E+03
  0.8000000E+00  0.5515696E+01  0.1128823E+03 -0.4933455E-07  0.9993156E-06  0.1588603E+02  0.3251046E+03
  0.8100000E+00  0.5515696E+01  0.1079615E+03 -0.4933455E-07  0.2845808E-05  0.1588603E+02  0.3109326E+03
  0.8200000E+00  0.5515696E+01  0.1024923E+03 -0.4933455E-07  0.4296811E-05  0.1588603E+02  0.2951816E+03
  0.8300000E+00  0.5515696E+01  0.9653317E+02 -0.4933455E-07  0.5283178E-05  0.1588603E+02  0.2780194E+03
  0.8400000E+00  0.5515696E+01  0.9014346E+02 -0.4933455E-07  0.5754007E-05  0.1588603E+02  0.2596170E+03
  0.8500000E+00  0.5515696E+01  0.8338316E+02 -0.4933455E-07  0.5678472E-05  0.1588603E+02  0.2401474E+03
  0.8600000E+00  0.5515696E+01  0.7631231E+02 -0.4933455E-07  0.5046817E-05  0.1588603E+02  0.2197832E+03
  0.8700000E+00  0.5515696E+01  0.6899072E+02 -0.4933455E-07  0.3870638E-05  0.1588603E+02  0.1986971E+03
  0.8800000E+00  0.5515696E+01  0.6147750E+02 -0.4933455E-07  0.2182492E-05  0.1588603E+02  0.1770589E+03
  0.8900000E+00  0.5515696E+01  0.5383046E+02 -0.4933455E-07  0.3466848E-07  0.1588603E+02  0.1550354E+03
  0.9000000E+00  0.5515696E+01  0.4610606E+02 -0.4933455E-07 -0.2502677E-05  0.1588603E+02  0.1327891E+03
  0.9100000E+00  0.5515696E+01  0.3835899E+02 -0.4933455E-07 -0.5343973E-05  0.1588603E+02  0.1104774E+03
  0.9200000E+00  0.5515696E+01  0.3064178E+02 -0.4933455E-07 -0.8391235E-05  0.1588603E+02  0.8825165E+02
  0.9300000E+00  0.5515696E+01  0.2300464E+02 -0.4933455E-07 -0.1153752E-04  0.1588603E+02  0.6625660E+02
  0.9400000E+00  0.5515696E+01  0.1549544E+02 -0.4933455E-07 -0.1467059E-04  0.1588603E+02  0.4462991E+02
  0.9500000E+00  0.5515696E+01  0.8159104E+01 -0.4933455E-07 -0.1767693E-04  0.1588603E+02  0.2350107E+02
  0.9600000E+00  0.5515696E+01  0.1037685E+01 -0.4933455E-07 -0.2044558E-04  0.1588603E+02  0.2991230E+01
  0.9700000E+00  0.5515696E+01 -0.5829621E+01 -0.4933455E-07 -0.2287205E-04  0.1588603E+02 -0.1678684E+02
  0.9800000E+00  0.5515696E+01 -0.1240701E+02 -0.4933455E-07 -0.2486191E-04  0.1588603E+02 -0.3572993E+02
  0.9899999E+00  0.5515696E+01 -0.1866172E+02 -0.4933455E-07 -0.2633412E-04  0.1588603E+02 -0.5374370E+02
  0.1000000E+01  0.5515696E+01 -0.2456445E+02 -0.4933455E-07 -0.2722381E-04  0.1588603E+02 -0.7074380E+02
  0.1010000E+01  0.5515696E+01 -0.3008917E+02 -0.4933455E-07 -0.2748454E-04  0.1588603E+02 -0.8665512E+02
  0.1020000E+01  0.5515696E+01 -0.3521326E+02 -0.4933455E-07 -0.2709003E-04  0.1588603E+02 -0.1014129E+03
  0.1030000E+01  0.5515696E+01 -0.3991771E+02 -0.4933455E-07 -0.2603506E-04  0.1588603E+02 -0.1149619E+03
  0.1040000E+01  0.5515696E+01 -0.4418671E+02 -0.4933455E-07 -0.2433578E-04  0.1588603E+02 -0.1272569E+03
  0.1050000E+01  0.5515696E+01 -0.4800817E+02 -0.4933455E-07 -0.2202920E-04  0.1588603E+02 -0.1382628E+03
  0.1060000E+01  0.5515696E+01 -0.5137310E+02 -0.4933455E-07 -0.1917211E-04  0.1588603E+02 -0.1479541E+03
  0.1070000E+01  0.5515696E+01 -0.5427618E+02 -0.4933455E-07 -0.1583926E-04  0.1588603E+02 -0.1563152E+03
  0.1080000E+01  0.5515696E+01 -0.5671512E+02 -0.4933455E-07 -0.1212098E-04  0.1588603E+02 -0.1633396E+03
  0.1090000E+01  0.5515696E+01 -0.5869104E+02 -0.4933455E-07 -0.8120149E-05  0.1588603E+02 -0.1690305E+03
  0.1100000E+01  0.5515696E+01 -0.6020816E+02 -0.4933455E-07 -0.3949219E-05  0.1588603E+02 -0.1733999E+03
  0.1110000E+01  0.5515696E+01 -0.6127359E+02 -0.4933455E-07  0.2738338E-06  0.1588603E+02 -0.1764686E+03
  0.1120000E+01  0.5515696E+01 -0.6189748E+02 -0.4933455E-07  0.4429035E-05  0.1588603E+02 -0.1782655E+03
  0.1130000E+01  0.5515696E+01 -0.6209260E+02 -0.4933455E-07  0.8398323E-05  0.1588603E+02 -0.1788277E+03
  0.1140000E+01  0.5515696E+01 -0.6187432E+02 -0.4933455E-07  0.1206935E-04  0.1588603E+02 -0.1781992E+03
  0.1150000E+01  0.5515696E+01 -0.6126025E+02 -0.4933455E-07  0.1533905E-04  0.1588603E+02 -0.1764308E+03
  0.1160000E+01  0.5515696E+01 -0.6027036E+02 -0.4933455E-07  0.1811689E-04  0.1588603E+02 -0.1735800E+03
  0.1170000E+01  0.5515696E+01 -0.5892633E+02 -0.4933455E-07  0.2032776E-04  0.1588603E+02 -0.1697094E+03
  0.1180000E+01  0.5515696E+01 -0.5725163E+02 -0.4933455E-07  0.2191429E-04  0.1588603E+02 -0.1648865E+03
  0.1190000E+01  0.5515696E+01 -0.5527124E+02 -0.4933455E-07  0.2283863E-04  0.1588603E+02 -0.1591830E+03
  0.1200000E+01  0.5515696E+01 -0.5301119E+02 -0.4933455E-07  0.2308358E-04  0.1588603E+02 -0.1526740E+03
  0.1210000E+01  0.5515696E+01 -0.5049852E+02 -0.4933455E-07  0.2265302E-04  0.1588603E+02 -0.1454376E+03
  0.1220000E+01  0.5515696E+01 -0.4776090E+02 -0.4933455E-07  0.2157175E-04  0.1588603E+02 -0.1375532E+03
  0.1230000E+01  0.5515696E+01 -0.4482648E+02 -0.4933455E-07  0.1988455E-04  0.1588603E+02 -0.1291022E+03
  0.1240000E+01  0.5515696E+01 -0.4172353E+02 -0.4933455E-07  0.1765474E-04  0.1588603E+02 -0.1201657E+03
  0.1250000E+01  0.5515696E+01 -0.3848020E+02 -0.4933455E-07  0.1496199E-04  0.1588603E+02 -0.1108249E+03
  0.1260000E+01  0.5515696E+01 -0.3512429E+02 -0.4933455E-07  0.1189981E-04  0.1588603E+02 -0.1011598E+03
  0.1270000E+01  0.5515696E+01 -0.3168309E+02 -0.4933455E-07  0.8572476E-05  0.1588603E+02 -0.9124906E+02
  0.1280000E+01  0.5515696E+01 -0.2818315E+02 -0.4933455E-07  0.5091724E-05  0.1588603E+02 -0.8116924E+02
  0.1290000E+01  0.5515696E+01 -0.2465006E+02 -0.4933455E-07  0.1573189E-05  0.1588603E+02 -0.7099381E+02
  0.1300000E+01  0.5515696E+01 -0.2110831E+02 -0.4933455E-07 -0.1867271E-05  0.1588603E+02 -0.6079359E+02
  0.1310000E+01  0.5515696E+01 -0.1758113E+02 -0.4933455E-07 -0.5117145E-05  0.1588603E+02 -0.5063521E+02
  0.1320000E+01  0.5515696E+01 -0.1409051E+02 -0.4933455E-07 -0.8070770E-05  0.1588603E+02 -0.4058211E+02
  0.1330000E+01  0.5515696E+01 -0.1065682E+02 -0.4933455E-07 -0.1063258E-04  0.1588603E+02 -0.3069306E+02
  0.1340000E+01  0.5515696E+01 -0.7299100E+01 -0.4933455E-07 -0.1272001E-04  0.1588603E+02 -0.2102270E+02
  0.1350000E+01  0.5515696E+01 -0.4034684E+01 -0.4933455E-07 -0.1426597E-04  0.1588603E+02 -0.1162110E+02
  0.1360000E+01  0.5515696E+01 -0.8795384E+00 -0.4933455E-07 -0.1522070E-04  0.1588603E+02 -0.2534173E+01
  0.1370000E+01  0.5515696E+01  0.2152076E+01 -0.4933455E-07 -0.1555329E-04  0.1588603E+02  0.6196991E+01
  0.1380000E+01  0.5515696E+01  0.5047416E+01 -0.4933455E-07 -0.1525244E-04  0.1588603E+02  0.1453567E+02
  0.1390000E+01  0.5515696E+01  0.7795244E+01 -0.4933455E-07 -0.1432658E-04  0.1588603E+02  0.2244951E+02
  0.1400000E+01  0.5515696E+01  0.1038567E+02 -0.4933455E-07 -0.1280349E-04  0.1588603E+02  0.2991002E+02
  0.1410000E+01  0.5515696E+01  0.1281036E+02 -0.4933455E-07 -0.1072923E-04  0.1588603E+02  0.3689326E+02
  0.1420000E+01  0.5515696E+01  0.1506219E+02 -0.4933455E-07 -0.8166578E-05  0.1588603E+02  0.4337857E+02
  0.1430000E+01  0.5515696E+01  0.1713538E+02 -0.4933455E-07 -0.5192933E-05  0.1588603E+02  0.4934944E+02
  0.1440000E+01  0.5515696E+01  0.1902519E+02 -0.4933455E-07 -0.1897826E-05  0.1588603E+02  0.5479220E+02
  0.1450000E+01  0.5515696E+01  0.2072816E+02 -0.4933455E-07  0.1619949E-05  0.1588603E+02  0.5969686E+02
  0.1460000E+01  0.5515696E+01  0.2224180E+02 -0.4933455E-07  0.5255423E-05  0.1588603E+02  0.6405616E+02
  0.1470000E+01  0.5515696E+01  0.2356462E+02 -0.4933455E-07  0.8900696E-05  0.1588603E+02  0.6786604E+02
  0.1480000E+01  0.5515696E+01  0.2469604E+02 -0.4933455E-07  0.1244828E-04  0.1588603E+02  0.7112456E+02
  0.1490000E+01  0.5515696E+01  0.2563635E+02 -0.4933455E-07  0.1579416E-04  0.1588603E+02  0.7383276E+02
  0.1500000E+01  0.5515696E+01  0.2638681E+02 -0.4933455E-07  0.1884111E-04  0.1588603E+02  0.7599417E+02
  0.1510000E+01  0.5515696E+01  0.2694936E+02 -0.4933455E-07  0.2150137E-04  0.1588603E+02  0.7761438E+02
  0.1520000E+01  0.5515696E+01  0.2732682E+02 -0.4933455E-07  0.2369921E-04  0.1588603E+02  0.7870153E+02
  0.1530000E+01  0.5515696E+01  0.2752278E+02 -0.4933455E-07  0.2537300E-04  0.1588603E+02  0.7926590E+02
  0.1540000E+01  0.5515696E+01  0.2754156E+02 -0.4933455E-07  0.2647683E-04  0.1588603E+02  0.7932012E+02
  0.1550000E+01  0.5515696E+01  0.2738835E+02 -0.4933455E-07  0.2698170E-04  0.1588603E+02  0.7887891E+02
  0.1560000E+01  0.5515696E+01  0.2706906E+02 -0.4933455E-07  0.2687612E-04  0.1588603E+02  0.7795946E+02
  0.1570000E+01  0.5515696E+01  0.2659039E+02 -0.4933455E-07  0.2616616E-04  0.1588603E+02  0.7658081E+02
  0.1580000E+01  0.5515696E+01  0.2595969E+02 -0.4933455E-07  0.2487499E-04  0.1588603E+02  0.7476453E+02
  0.1590000E+01  0.5515696E+01  0.2518523E+02 -0.4933455E-07  0.2304197E-04  0.1588603E+02  0.7253410E+02
  0.1600000E+01  0.5515696E+01  0.2427590E+02 -0.4933455E-07  0.2072119E-04  0.1588603E+02  0.6991531E+02
  0.1610000E+01  0.5515696E+01  0.2324132E+02 -0.4933455E-07  0.1797957E-04  0.1588603E+02  0.6693575E+02
  0.1620000E+01  0.5515696E+01  0.2209173E+02 -0.4933455E-07  0.1489485E-04  0.1588603E+02  0.6362490E+02
  0.1630000E+01  0.5515696E+01  0.2083809E+02 -0.4933455E-07  0.1155294E-04  0.1588603E+02  0.6001444E+02
  0.1640000E+01  0.5515696E+01  0.1949186E+02 -0.4933455E-07  0.8045329E-05  0.1588603E+02  0.5613728E+02
  0.1650000E+01  0.5515696E+01  0.1806490E+02 -0.4933455E-07  0.4466305E-05  0.1588603E+02  0.5202769E+02
  0.1660000E+01  0.5515696E+01  0.1656958E+02 -0.4933455E-07  0.9101707E-06  0.1588603E+02  0.4772115E+02
  0.1670000E+01  0.5515696E+01  0.1501848E+02 -0.4933455E-07 -0.2531571E-05  0.1588603E+02  0.4325399E+02
  0.1680000E+01  0.5515696E+01  0.1342444E+02 -0.4933455E-07 -0.5772719E-05  0.1588603E+02  0.3866314E+02
  0.1690000E+01  0.5515696E+01  0.1180033E+02 -0.4933455E-07 -0.8734862E-05  0.1588603E+02  0.3398571E+02
  0.1700000E+01  0.5515696E+01  0.1015896E+02 -0.4933455E-07 -0.1134945E-04  0.1588603E+02  0.2925850E+02
  0.1710000E+01  0.5515696E+01  0.8512912E+01 -0.4933455E-07 -0.1355957E-04  0.1588603E+02  0.2451789E+02
  0.1720000E+01  0.5515696E+01  0.6874583E+01 -0.4933455E-07 -0.1532137E-04  0.1588603E+02  0.1979945E+02
  0.1730000E+01  0.5515696E+01  0.5255817E+01 -0.4933455E-07 -0.1660499E-04  0.1588603E+02  0.1513739E+02
  0.1740000E+01  0.5515696E+01  0.3667959E+01 -0.4933455E-07 -0.1739513E-04  0.1588603E+02  0.1056431E+02
  0.1750000E+01  0.5515696E+01  0.2121648E+01 -0.4933455E-07 -0.1769122E-04  0.1588603E+02  0.6110873E+01
  0.1760000E+01  0.5515696E+01  0.6267742E+00 -0.4933455E-07 -0.1750696E-04  0.1588603E+02  0.1805606E+01
  0.1770000E+01  0.5515696E+01 -0.8076739E+00 -0.4933455E-07 -0.1686970E-04  0.1588603E+02 -0.2325687E+01
  0.1780000E+01  0.5515696E+01 -0.2173640E+01 -0.4933455E-07 -0.1581926E-04  0.1588603E+02 -0.6259690E+01
  0.1790000E+01  0.5515696E+01 -0.3464101E+01 -0.4933455E-07 -0.1440649E-04  0.1588603E+02 -0.9976260E+01
  0.1800000E+01  0.5515696E+01 -0.4673028E+01 -0.4933455E-07 -0.1269144E-04  0.1588603E+02 -0.1345804E+02
  0.1810000E+01  0.5515696E+01 -0.5795511E+01 -0.4933455E-07 -0.1074154E-04  0.1588603E+02 -0.1669083E+02
  0.1820000E+01  0.5515696E+01 -0.6827703E+01 -0.4933455E-07 -0.8629286E-05  0.1588603E+02 -0.1966358E+02
  0.1830000E+01  0.5515696E+01 -0.7766845E+01 -0.4933455E-07 -0.6430097E-05  0.1588603E+02 -0.2236833E+02
  0.1840000E+01  0.5515696E+01 -0.8611130E+01 -0.4933455E-07 -0.4219980E-05  0.1588603E+02 -0.2479995E+02
  0.1850000E+01  0.5515696E+01 -0.9359753E+01 -0.4933455E-07 -0.2073284E-05  0.1588603E+02 -0.2695601E+02
  0.1860000E+01  0.5515696E+01 -0.1001292E+02 -0.4933455E-07 -0.6055445E-07  0.1588603E+02 -0.2883714E+02
  0.1870000E+01  0.5515696E+01 -0.1057150E+02 -0.4933455E-07  0.1753353E-05  0.1588603E+02 -0.3044592E+02
  0.1880000E+01  0.5515696E+01 -0.1103726E+02 -0.4933455E-07  0.3311264E-05  0.1588603E+02 -0.3178735E+02
  0.1890000E+01  0.5515696E+01 -0.1141247E+02 -0.4933455E-07  0.4565078E-05  0.1588603E+02 -0.3286798E+02
  0.1900000E+01  0.5515696E+01 -0.1170006E+02 -0.4933455E-07  0.5476977E-05  0.1588603E+02 -0.3369625E+02
  0.1910000E+01  0.5515696E+01 -0.1190332E+02 -0.4933455E-07  0.6020417E-05  0.1588603E+02 -0.3428167E+02
  0.1920000E+01  0.5515696E+01 -0.1202589E+02 -0.4933455E-07  0.6180638E-05  0.1588603E+02 -0.3463467E+02
  0.1930000E+01  0.5515696E+01 -0.1207181E+02 -0.4933455E-07  0.5954897E-05  0.1588603E+02 -0.3476698E+02
  0.1940000E+01  0.5515696E+01 -0.1204494E+02 -0.4933455E-07  0.5352351E-05  0.1588603E+02 -0.3468960E+02
  0.1950000E+01  0.5515696E+01 -0.1194957E+02 -0.4933455E-07  0.4393570E-05  0.1588603E+02 -0.3441499E+02
  0.1960000E+01  0.5515696E+01 -0.1178977E+02 -0.4933455E-07  0.3109783E-05  0.1588603E+02 -0.3395477E+02
  0.1970000E+01  0.5515696E+01 -0.1156970E+02 -0.4933455E-07  0.1541818E-05  0.1588603E+02 -0.3332097E+02
  0.1980000E+01  0.5515696E+01 -0.1129331E+02 -0.4933455E-07 -0.2612462E-06  0.1588603E+02 -0.3252498E+02
  0.1990000E+01  0.5515696E+01 -0.1096446E+02 -0.4933455E-07 -0.2243579E-05  0.1588603E+02 -0.3157789E+02
  0.2000000E+01  0.5515696E+01 -0.1058693E+02 -0.4933455E-07 -0.4344212E-05  0.1588603E+02 -0.3049063E+02
  0.2010000E+01  0.5515696E+01 -0.1016433E+02 -0.4933455E-07 -0.6499005E-05  0.1588603E+02 -0.2927355E+02
  0.2020000E+01  0.5515696E+01 -0.9700169E+01 -0.4933455E-07 -0.8642369E-05  0.1588603E+02 -0.2793679E+02
  0.2030000E+01  0.5515696E+01 -0.9197770E+01 -0.4933455E-07 -0.1070913E-04  0.1588603E+02 -0.2648992E+02
  0.2040000E+01  0.5515696E+01 -0.8660477E+01 -0.4933455E-07 -0.1263641E-04  0.1588603E+02 -0.2494250E+02
  0.2050000E+01  0.5515696E+01 -0.8091488E+01 -0.4933455E-07 -0.1436537E-04  0.1588603E+02 -0.2330383E+02
  0.2060000E+01  0.5515696E+01 -0.7494126E+01 -0.4933455E-07 -0.1584274E-04  0.1588603E+02 -0.2158343E+02
  0.2070000E+01  0.5515696E+01 -0.6871653E+01 -0.4933455E-07 -0.1702231E-04  0.1588603E+02 -0.1979072E+02
  0.2080000E+01  0.5515696E+01 -0.6227396E+01 -0.4933455E-07 -0.1786612E-04  0.1588603E+02 -0.1793526E+02
  0.2090000E+01  0.5515696E+01 -0.5564887E+01 -0.4933455E-07 -0.1834545E-04  0.1588603E+02 -0.1602725E+02
  0.2100000E+01  0.5515696E+01 -0.4887678E+01 -0.4933455E-07 -0.1844149E-04  0.1588603E+02 -0.1407688E+02
  0.2110000E+01  0.5515696E+01 -0.4199563E+01 -0.4933455E-07 -0.1814586E-04  0.1588603E+02 -0.1209509E+02
  0.2120000E+01  0.5515696E+01 -0.3504471E+01 -0.4933455E-07 -0.1746066E-04  0.1588603E+02 -0.1009324E+02
  0.2130000E+01  0.5515696E+01 -0.2806452E+01 -0.4933455E-07 -0.1639849E-04  0.1588603E+02 -0.8082932E+01
  0.2140000E+01  0.5515696E+01 -0.2109782E+01 -0.4933455E-07 -0.1498189E-04  0.1588603E+02 -0.6076500E+01
  0.2150000E+01  0.5515696E+01 -0.1418912E+01 -0.4933455E-07 -0.1324286E-04  0.1588603E+02 -0.4086815E+01
  0.2160000E+01  0.5515696E+01 -0.7382962E+00 -0.4933455E-07 -0.1122178E-04  0.1588603E+02 -0.2126615E+01
  0.2170000E+01  0.5515696E+01 -0.7245641E-01 -0.4933455E-07 -0.8966335E-05  0.1588603E+02 -0.2089547E+00
  0.2180000E+01  0.5515696E+01  0.5740741E+00 -0.4933455E-07 -0.6530313E-05  0.1588603E+02  0.1653040E+01
  0.2190000E+01  0.5515696E+01  0.1196824E+01 -0.4933455E-07 -0.3972152E-05  0.1588603E+02  0.3446587E+01
  0.2200000E+01  0.5515696E+01  0.1791417E+01 -0.4933455E-07 -0.1353148E-05  0.1588603E+02  0.5159042E+01
  0.2210000E+01  0.5515696E+01  0.2353687E+01 -0.4933455E-07  0.1263921E-05  0.1588603E+02  0.6778406E+01
  0.2220000E+01  0.5515696E+01  0.2879859E+01 -0.4933455E-07  0.3816555E-05  0.1588603E+02  0.8293836E+01
  0.2230000E+01  0.5515696E+01  0.3366343E+01 -0.4933455E-07  0.6244203E-05  0.1588603E+02  0.9694930E+01
  0.2240000E+01  0.5515696E+01  0.3810048E+01 -0.4933455E-07  0.8489802E-05  0.1588603E+02  0.1097283E+02
  0.2250000E+01  0.5515696E+01  0.4208390E+01 -0.4933455E-07  0.1050131E-04  0.1588603E+02  0.1212009E+02
  0.2260000E+01  0.5515696E+01  0.4559269E+01 -0.4933455E-07  0.1223306E-04  0.1588603E+02  0.1313067E+02
  0.2270000E+01  0.5515696E+01  0.4861166E+01 -0.4933455E-07  0.1364693E-04  0.1588603E+02  0.1400016E+02
  0.2280000E+01  0.5515696E+01  0.5113133E+01 -0.4933455E-07  0.1471335E-04  0.1588603E+02  0.1472585E+02
  0.2290000E+01  0.5515696E+01  0.5314897E+01 -0.4933455E-07  0.1541210E-04  0.1588603E+02  0.1530698E+02
  0.2300000E+01  0.5515696E+01  0.5466807E+01 -0.4933455E-07  0.1573283E-04  0.1588603E+02  0.1574452E+02
  0.2310000E+01  0.5515696E+01  0.5569719E+01 -0.4933455E-07  0.1567524E-04  0.1588603E+02  0.1604093E+02
  0.2320000E+01  0.5515696E+01  0.5625214E+01 -0.4933455E-07  0.1524930E-04  0.1588603E+02  0.1620077E+02
  0.2330000E+01  0.5515696E+01  0.5635215E+01 -0.4933455E-07  0.1447479E-04  0.1588603E+02  0.1622962E+02
  0.2340000E+01  0.5515696E+01  0.5602373E+01 -0.4933455E-07  0.1338083E-04  0.1588603E+02  0.1613507E+02
  0.2350000E+01  0.5515696E+01  0.5529568E+01 -0.4933455E-07  0.1200524E-04  0.1588603E+02  0.1592540E+02
  0.2360000E+01  0.5515696E+01  0.5420062E+01 -0.4933455E-07  0.1039340E-04  0.1588603E+02  0.1561002E+02
  0.2370000E+01  0.5515696E+01  0.5277339E+01 -0.4933455E-07  0.8597131E-05  0.1588603E+02  0.1519899E+02
  0.2380000E+01  0.5515696E+01  0.5105287E+01 -0.4933455E-07  0.6673306E-05  0.1588603E+02  0.1470349E+02
  0.2390000E+01  0.5515696E+01  0.4907581E+01 -0.4933455E-07  0.4682353E-05  0.1588603E+02  0.1413411E+02
  0.2400000E+01  0.5515696E+01  0.4688042E+01 -0.4933455E-07  0.2686594E-05  0.1588603E+02  0.1350185E+02
  0.2410000E+01  0.5515696E+01  0.4450458E+01 -0.4933455E-07  0.7486396E-06  0.1588603E+02  0.1281762E+02
  0.2420000E+01  0.5515696E+01  0.4198356E+01 -0.4933455E-07 -0.1070373E-05  0.1588603E+02  0.1209156E+02
  0.2430000E+01  0.5515696E+01  0.3935105E+01 -0.4933455E-07 -0.2712445E-05  0.1588603E+02  0.1133341E+02
  0.2440000E+01  0.5515696E+01  0.3663797E+01 -0.4933455E-07 -0.4124297E-05  0.1588603E+02  0.1055202E+02
  0.2450000E+01  0.5515696E+01  0.3387173E+01 -0.4933455E-07 -0.5258869E-05  0.1588603E+02  0.9755325E+01
  0.2460000E+01  0.5515696E+01  0.3107732E+01 -0.4933455E-07 -0.6076637E-05  0.1588603E+02  0.8950538E+01
  0.2470000E+01  0.5515696E+01  0.2827487E+01 -0.4933455E-07 -0.6546904E-05  0.1588603E+02  0.8143431E+01
  0.2480000E+01  0.5515696E+01  0.2548066E+01 -0.4933455E-07 -0.6648530E-05  0.1588603E+02  0.7338681E+01
  0.2490000E+01  0.5515696E+01  0.2270858E+01 -0.4933455E-07 -0.6370713E-05  0.1588603E+02  0.6540306E+01
  0.2500000E+01  0.5515696E+01  0.1996793E+01 -0.4933455E-07 -0.5713434E-05  0.1588603E+02  0.5750992E+01
  0.2510000E+01  0.5515696E+01  0.1726520E+01 -0.4933455E-07 -0.4687538E-05  0.1588603E+02  0.4972611E+01
  0.2520000E+01  0.5515696E+01  0.1460526E+01 -0.4933455E-07 -0.3314557E-05  0.1588603E+02  0.4206521E+01
  0.2530000E+01  0.5515696E+01  0.1198951E+01 -0.4933455E-07 -0.1626247E-05  0.1588603E+02  0.3453167E+01
  0.2540000E+01  0.5515696E+01  0.9418267E+00 -0.4933455E-07  0.3361010E-06  0.1588603E+02  0.2712625E+01
  0.2550000E+01  0.5515696E+01  0.6892323E+00 -0.4933455E-07  0.2522751E-05  0.1588603E+02  0.1985167E+01
  0.2560000E+01  0.5515696E+01  0.4409815E+00 -0.4933455E-07  0.4876669E-05  0.1588603E+02  0.1270190E+01
  0.2570000E+01  0.5515696E+01  0.1970890E+00 -0.4933455E-07  0.7335083E-05  0.1588603E+02  0.5677578E+00
  0.2580000E+01  0.5515696E+01 -0.4252930E-01 -0.4933455E-07  0.9831144E-05  0.1588603E+02 -0.1223404E+00
  0.2590000E+01  0.5515696E+01 -0.2775729E+00 -0.4933455E-07  0.1229559E-04  0.1588603E+02 -0.7992851E+00
  0.2600000E+01  0.5515696E+01 -0.5078419E+00 -0.4933455E-07  0.1465866E-04  0.1588603E+02 -0.1462484E+01
  0.2610000E+01  0.5515696E+01 -0.7328028E+00 -0.4933455E-07  0.1685203E-04  0.1588603E+02 -0.2110378E+01
  0.2620000E+01  0.5515696E+01 -0.9517265E+00 -0.4933455E-07  0.1881065E-04  0.1588603E+02 -0.2740879E+01
  0.2630000E+01  0.5515696E+01 -0.1163706E+01 -0.4933455E-07  0.2047452E-04  0.1588603E+02 -0.3351412E+01
  0.2640000E+01  0.5515696E+01 -0.1367537E+01 -0.4933455E-07  0.2179049E-04  0.1588603E+02 -0.3938459E+01
  0.2650000E+01  0.5515696E+01 -0.1561947E+01 -0.4933455E-07  0.2271364E-04  0.1588603E+02 -0.4498374E+01
  0.2660000E+01  0.5515696E+01 -0.1745474E+01 -0.4933455E-07  0.2320872E-04  0.1588603E+02 -0.5026937E+01
  0.2670000E+01  0.5515696E+01 -0.1916462E+01 -0.4933455E-07  0.2325111E-04  0.1588603E+02 -0.5519408E+01
  0.2680000E+01  0.5515696E+01 -0.2073267E+01 -0.4933455E-07  0.2282768E-04  0.1588603E+02 -0.5971029E+01
  0.2690000E+01  0.5515696E+01 -0.2214214E+01 -0.4933455E-07  0.2193711E-04  0.1588603E+02 -0.6376986E+01
  0.2700000E+01  0.5515696E+01 -0.2337553E+01 -0.4933455E-07  0.2059023E-04  0.1588603E+02 -0.6732217E+01
  0.2710000E+01  0.5515696E+01 -0.2441885E+01 -0.4933455E-07  0.1880963E-04  0.1588603E+02 -0.7032711E+01
  0.2720000E+01  0.5515696E+01 -0.2525681E+01 -0.4933455E-07  0.1662926E-04  0.1588603E+02 -0.7274084E+01
  0.2730000E+01  0.5515696E+01 -0.2587831E+01 -0.4933455E-07  0.1409348E-04  0.1588603E+02 -0.7453065E+01
  0.2740000E+01  0.5515696E+01 -0.2627459E+01 -0.4933455E-07  0.1125600E-04  0.1588603E+02 -0.7567225E+01
  0.2750000E+01  0.5515696E+01 -0.2643951E+01 -0.4933455E-07  0.8178405E-05  0.1588603E+02 -0.7614747E+01
  0.2760000E+01  0.5515696E+01 -0.2637077E+01 -0.4933455E-07  0.4928530E-05  0.1588603E+02 -0.7594954E+01
  0.2770000E+01  0.5515696E+01 -0.2606999E+01 -0.4933455E-07  0.1578627E-05  0.1588603E+02 -0.7508342E+01
  0.2780000E+01  0.5515696E+01 -0.2554293E+01 -0.4933455E-07 -0.1796573E-05  0.1588603E+02 -0.7356566E+01