VARIABLES="w (rad/s)"
"A   1   1" "B   1   1"
"A   1   2" "B   1   2"
"A   1   3" "B   1   3"
Zone t="Motion of body    1 in DoF   1",I=   100,F=POINT
  0.1000000E+00  0.9446908E+01 -0.4922004E-11 -0.8991628E-06 -0.6977829E-10  0.2720803E+02 -0.1417364E-10
  0.3010101E+00  0.9451593E+01  0.3225697E-07 -0.8680579E-06 -0.1573862E-08  0.2722149E+02  0.9290627E-07
  0.5020202E+00  0.9468121E+01  0.1119006E-05 -0.8211356E-06 -0.7081813E-08  0.2726910E+02  0.3222860E-05
  0.7030303E+00  0.9548784E+01  0.1228064E-04 -0.8599129E-06 -0.1776462E-07  0.2750137E+02  0.3536970E-04
  0.9040404E+00  0.9603769E+01  0.7114663E-04 -0.7199657E-06 -0.3691169E-07  0.2765982E+02  0.2049102E-03
  0.1105051E+01  0.9641288E+01  0.2879796E-03 -0.7569280E-06 -0.6760259E-07  0.2776788E+02  0.8294127E-03
  0.1306061E+01  0.9686245E+01  0.9207753E-03 -0.3526168E-06 -0.8721835E-07  0.2789732E+02  0.2651936E-02
  0.1507071E+01  0.9741798E+01  0.2487776E-02 -0.7876010E-06 -0.7975228E-07  0.2805728E+02  0.7165065E-02
  0.1708081E+01  0.9798482E+01  0.5917495E-02 -0.7824265E-07 -0.5709876E-07  0.2822057E+02  0.1704302E-01
  0.1909091E+01  0.9875913E+01  0.1275934E-01  0.4219778E-07  0.1130184E-07  0.2844353E+02  0.3674833E-01
  0.2110101E+01  0.9954913E+01  0.2541191E-01  0.1015137E-06 -0.1489207E-07  0.2867108E+02  0.7318908E-01
  0.2311111E+01  0.1005436E+02  0.4746699E-01 -0.7255586E-06  0.5923357E-07  0.2895743E+02  0.1367099E+00
  0.2512121E+01  0.1016612E+02  0.8400931E-01 -0.4154047E-06  0.2407651E-06  0.2927938E+02  0.2419551E+00
  0.2713131E+01  0.1028867E+02  0.1420526E+00 -0.1141871E-05  0.3669029E-06  0.2963225E+02  0.4091259E+00
  0.2914141E+01  0.1043563E+02  0.2311368E+00 -0.1172886E-05  0.4993526E-06  0.3005562E+02  0.6656969E+00
  0.3115151E+01  0.1060057E+02  0.3636141E+00 -0.2483656E-05  0.7907001E-06  0.3053056E+02  0.1047243E+01
  0.3316161E+01  0.1077647E+02  0.5552808E+00 -0.3305529E-06  0.5139227E-06  0.3103719E+02  0.1599261E+01
  0.3517171E+01  0.1097862E+02  0.8267972E+00 -0.1620931E-05  0.9188952E-06  0.3161941E+02  0.2381252E+01
  0.3718182E+01  0.1120654E+02  0.1203708E+01 -0.8975877E-06  0.8283387E-06  0.3227576E+02  0.3466783E+01
  0.3919192E+01  0.1145100E+02  0.1716571E+01 -0.9013354E-06  0.6581249E-06  0.3297992E+02  0.4943862E+01
  0.4120202E+01  0.1171284E+02  0.2403391E+01 -0.1969696E-05  0.1073233E-05  0.3373400E+02  0.6921980E+01
  0.4321212E+01  0.1199826E+02  0.3311640E+01 -0.1341418E-05 -0.5966285E-07  0.3455603E+02  0.9537777E+01
  0.4522222E+01  0.1230811E+02  0.4498500E+01 -0.8791731E-06 -0.1242734E-06  0.3544828E+02  0.1295602E+02
  0.4723232E+01  0.1263647E+02  0.6029942E+01 -0.1182877E-05  0.9854557E-07  0.3639400E+02  0.1736668E+02
  0.4924242E+01  0.1297023E+02  0.7978504E+01 -0.4184504E-05  0.2616784E-05  0.3735520E+02  0.2297869E+02
  0.5125252E+01  0.1330356E+02  0.1043113E+02  0.4948578E-05  0.5468726E-05  0.3831522E+02  0.3004237E+02
  0.5326262E+01  0.1363223E+02  0.1349173E+02 -0.4184451E-05  0.5224720E-06  0.3926182E+02  0.3885712E+02
  0.5527273E+01  0.1394761E+02  0.1727788E+02 -0.1636600E-05  0.4000496E-05  0.4017033E+02  0.4976142E+02
  0.5728283E+01  0.1422889E+02  0.2190780E+02  0.4657033E-05  0.5833106E-05  0.4098006E+02  0.6309568E+02
  0.5929293E+01  0.1445009E+02  0.2749045E+02  0.6469772E-06 -0.1025153E-04  0.4161722E+02  0.7917401E+02
  0.6130303E+01  0.1457433E+02  0.3409979E+02 -0.1882455E-05 -0.2037175E-04  0.4197503E+02  0.9820910E+02
  0.6331313E+01  0.1456330E+02  0.4176761E+02 -0.5338181E-06 -0.2455967E-04  0.4194322E+02  0.1202927E+03
  0.6532323E+01  0.1437876E+02  0.5045459E+02 -0.1025801E-05 -0.1998013E-04  0.4141169E+02  0.1453114E+03
  0.6733334E+01  0.1397762E+02  0.6000882E+02  0.9045816E-06 -0.5972572E-05  0.4025639E+02  0.1728275E+03
  0.6934343E+01  0.1332378E+02  0.7012334E+02  0.8439778E-06 -0.3735535E-05  0.3837336E+02  0.2019572E+03
  0.7135354E+01  0.1239530E+02  0.8032844E+02 -0.5508040E-06  0.4763715E-05  0.3569926E+02  0.2313487E+03
  0.7336363E+01  0.1118875E+02  0.8994406E+02 -0.6220358E-07  0.6098300E-05  0.3222431E+02  0.2590415E+03
  0.7537374E+01  0.9739810E+01  0.9820421E+02  0.4695303E-08  0.6500166E-05  0.2805124E+02  0.2828306E+03
  0.7738384E+01  0.8116723E+01  0.1043746E+03  0.1801655E-06 -0.5837530E-05  0.2337678E+02  0.3006014E+03
  0.7939394E+01  0.6419812E+01  0.1079017E+03 -0.7786639E-06 -0.4911330E-05  0.1848962E+02  0.3107593E+03
  0.8140405E+01  0.4760376E+01  0.1085552E+03 -0.1195557E-06 -0.4643574E-05  0.1371043E+02  0.3126408E+03
  0.8341414E+01  0.3239520E+01  0.1064251E+03  0.3671067E-06 -0.7769559E-06  0.9330340E+01  0.3065054E+03
  0.8542424E+01  0.1929973E+01  0.1019090E+03  0.2696144E-06 -0.2055895E-06  0.5558836E+01  0.2934985E+03
  0.8743435E+01  0.8737974E+00  0.9556829E+02 -0.1844871E-06 -0.6470596E-05  0.2517066E+01  0.2752371E+03
  0.8944445E+01  0.7620575E-01  0.8803762E+02 -0.1169302E-06  0.2036919E-05  0.2200202E+00  0.2535485E+03
  0.9145455E+01 -0.4759900E+00  0.7989150E+02 -0.7484833E-07  0.1111580E-04 -0.1370274E+01  0.2300876E+03
  0.9346465E+01 -0.8167145E+00  0.7160661E+02  0.1770680E-06  0.9742449E-05 -0.2351551E+01  0.2062269E+03
  0.9547475E+01 -0.9835246E+00  0.6350732E+02  0.1465148E-06  0.2930537E-05 -0.2831933E+01  0.1829001E+03
  0.9748485E+01 -0.1012164E+01  0.5581190E+02  0.1910702E-09  0.1049164E-05 -0.2914379E+01  0.1607376E+03
  0.9949495E+01 -0.9333374E+00  0.4868485E+02  0.3365100E-06  0.3777182E-05 -0.2687340E+01  0.1402114E+03
  0.1015051E+02 -0.7763628E+00  0.4218638E+02  0.3683815E-06 -0.3758236E-05 -0.2235231E+01  0.1214958E+03
  0.1035151E+02 -0.5655138E+00  0.3632344E+02  0.2680198E-06  0.1893321E-05 -0.1627939E+01  0.1046104E+03
  0.1055252E+02 -0.3189004E+00  0.3109526E+02  0.5707512E-06  0.2819113E-05 -0.9176793E+00  0.8955313E+02
  0.1075354E+02 -0.5066553E-01  0.2646914E+02  0.5458785E-06  0.6466697E-05 -0.1451554E+00  0.7622992E+02
  0.1095455E+02  0.2283765E+00  0.2239844E+02  0.5255749E-06  0.1004763E-04  0.6585019E+00  0.6450646E+02
  0.1115556E+02  0.5101696E+00  0.1883894E+02  0.3438750E-06  0.5520298E-05  0.1470078E+01  0.5425504E+02
  0.1135657E+02  0.7898478E+00  0.1574699E+02  0.1659829E-06  0.5654991E-05  0.2275572E+01  0.4535025E+02
  0.1155758E+02  0.1062780E+01  0.1308122E+02  0.2354580E-06  0.7690629E-05  0.3061623E+01  0.3767282E+02
  0.1175859E+02  0.1325827E+01  0.1079860E+02  0.3922162E-06  0.4991656E-05  0.3819208E+01  0.3109909E+02
  0.1195960E+02  0.1576558E+01  0.8843677E+01  0.4390445E-06  0.5707901E-05  0.4541317E+01  0.2546885E+02
  0.1216061E+02  0.1814331E+01  0.7188900E+01  0.6315214E-06  0.3154273E-05  0.5226106E+01  0.2070329E+02
  0.1236162E+02  0.2038305E+01  0.5787778E+01  0.6088966E-06  0.5346199E-05  0.5871141E+01  0.1666804E+02
  0.1256263E+02  0.2247718E+01  0.4610226E+01  0.8636654E-06  0.2591347E-05  0.6474270E+01  0.1327687E+02
  0.1276364E+02  0.2443089E+01  0.3636712E+01  0.1056706E-05 -0.7155468E-06  0.7036959E+01  0.1047316E+02
  0.1296465E+02  0.2625096E+01  0.2835833E+01  0.7386130E-06  0.1920853E-08  0.7561122E+01  0.8166719E+01
  0.1316566E+02  0.2792843E+01  0.2196475E+01  0.3024790E-06 -0.7979106E-06  0.8044221E+01  0.6325455E+01
  0.1336667E+02  0.2948146E+01  0.1681560E+01  0.2926350E-07  0.8241477E-06  0.8491484E+01  0.4842523E+01
  0.1356768E+02  0.3090769E+01  0.1273834E+01  0.5748142E-06 -0.3412206E-05  0.8902263E+01  0.3668318E+01
  0.1376869E+02  0.3222267E+01  0.9581478E+00  0.1079544E-06 -0.1312059E-05  0.9280977E+01  0.2759190E+01
  0.1396970E+02  0.3343219E+01  0.7189758E+00 -0.5136051E-06 -0.1019347E-05  0.9629300E+01  0.2070433E+01
  0.1417071E+02  0.3454227E+01  0.5360750E+00 -0.1018686E-06  0.4797475E-06  0.9949018E+01  0.1543690E+01
  0.1437172E+02  0.3555216E+01  0.4055687E+00  0.2017948E-06  0.4838002E-06  0.1023986E+02  0.1167866E+01
  0.1457273E+02  0.3648726E+01  0.3090291E+00 -0.3975114E-07  0.1684093E-06  0.1050916E+02  0.8898792E+00
  0.1477374E+02  0.3734282E+01  0.2422793E+00 -0.8357717E-06 -0.1583625E-05  0.1075559E+02  0.6976715E+00
  0.1497475E+02  0.3812772E+01  0.1961035E+00 -0.2556127E-06 -0.2536390E-06  0.1098161E+02  0.5647219E+00
  0.1517576E+02  0.3884733E+01  0.1630797E+00  0.6662228E-06 -0.8936340E-05  0.1118888E+02  0.4696406E+00
  0.1537677E+02  0.3951255E+01  0.1445875E+00 -0.1525073E-06  0.1048116E-05  0.1138045E+02  0.4164068E+00
  0.1557778E+02  0.4012830E+01  0.1254381E+00  0.1658445E-05 -0.7781899E-05  0.1155779E+02  0.3612754E+00
  0.1577879E+02  0.4070045E+01  0.1154631E+00 -0.9513440E-06  0.3391320E-05  0.1172257E+02  0.3325629E+00
  0.1597980E+02  0.4123204E+01  0.1010182E+00 -0.5671930E-06  0.7687107E-05  0.1187568E+02  0.2909728E+00
  0.1618081E+02  0.4173306E+01  0.8576085E-01  0.2259697E-06 -0.3863388E-06  0.1201994E+02  0.2470394E+00
  0.1638182E+02  0.4220037E+01  0.6852873E-01 -0.1653340E-05  0.3686401E-04  0.1215452E+02  0.1974186E+00
  0.1658283E+02  0.4264877E+01  0.5106012E-01 -0.8179413E-06  0.5105341E-05  0.1228367E+02  0.1471142E+00
  0.1678384E+02  0.4306750E+01  0.3066039E-01 -0.7957157E-06 -0.1876152E-05  0.1240428E+02  0.8837055E-01
  0.1698485E+02  0.4346857E+01  0.1292403E-01  0.2688988E-06 -0.4490011E-05  0.1251981E+02  0.3729955E-01
  0.1718586E+02  0.4385383E+01 -0.2661250E-02  0.1582383E-07 -0.9215055E-05  0.1263075E+02 -0.7581200E-02
  0.1738687E+02  0.4421762E+01 -0.2047486E-01 -0.1498741E-06 -0.1460196E-04  0.1273549E+02 -0.5888150E-01
  0.1758788E+02  0.4457032E+01 -0.2881562E-01  0.5665920E-06 -0.3020947E-04  0.1283711E+02 -0.8289612E-01
  0.1778889E+02  0.4490733E+01 -0.3201926E-01  0.1027398E-05 -0.2868100E-04  0.1293413E+02 -0.9211826E-01
  0.1798990E+02  0.4522891E+01 -0.2466031E-01  0.7975561E-06 -0.2283940E-04  0.1302673E+02 -0.7092124E-01
  0.1819091E+02  0.4553819E+01 -0.2143220E-01  0.4595455E-06 -0.1740858E-04  0.1311584E+02 -0.6162008E-01
  0.1839192E+02  0.4583990E+01  0.7690268E-02  0.1967777E-06 -0.1162377E-04  0.1320269E+02  0.2226033E-01
  0.1859293E+02  0.4613253E+01  0.6420612E-01  0.1045882E-06 -0.1179839E-04  0.1328697E+02  0.1850324E+00
  0.1879394E+02  0.4640784E+01  0.1196159E+00 -0.7363785E-07 -0.8347953E-05  0.1336630E+02  0.3446173E+00
  0.1899495E+02  0.4668153E+01  0.2258404E+00 -0.3432101E-07 -0.7506874E-05  0.1344509E+02  0.6505545E+00
  0.1919596E+02  0.4694896E+01  0.4824232E+00  0.1225529E-06 -0.9293584E-05  0.1352212E+02  0.1389529E+01
  0.1939697E+02  0.4705682E+01  0.1251193E+01  0.5753976E-06 -0.1168513E-04  0.1355318E+02  0.3603577E+01
  0.1959798E+02  0.4663885E+01  0.1602874E+00  0.1005932E-05 -0.9890988E-05  0.1343281E+02  0.4615353E+00
  0.1979899E+02  0.4719214E+01 -0.9916913E-01  0.7027610E-06 -0.2577715E-05  0.1359218E+02 -0.2855977E+00
  0.2000000E+02  0.4749450E+01 -0.2256145E-01 -0.7944182E-07 -0.2291110E-05  0.1367922E+02 -0.6493172E-01
Zone t="Motion of body    1 in DoF   2",I=   100,F=POINT
  0.1000000E+00 -0.1490844E-05 -0.8162360E-11  0.6240206E+01  0.3378864E-04 -0.4096364E-05 -0.2703615E-10
  0.3010101E+00 -0.1509674E-05 -0.2273737E-09  0.6257497E+01  0.9097350E-03 -0.4243409E-05 -0.6365326E-09
  0.5020202E+00 -0.1227993E-05  0.9385985E-09  0.6284937E+01  0.4111506E-02 -0.4158318E-05  0.8594725E-09
  0.7030303E+00 -0.1231664E-05 -0.7712515E-09  0.6275837E+01  0.1085317E-01 -0.3303204E-05 -0.1455192E-08
  0.9040404E+00 -0.9847214E-06 -0.3747118E-09  0.6279275E+01  0.2187361E-01 -0.2845609E-05 -0.1924491E-08
  0.1105051E+01 -0.1000704E-05  0.5848051E-08  0.6288197E+01  0.3730363E-01 -0.3282234E-05  0.6009941E-08
  0.1306061E+01 -0.5702836E-06 -0.4369213E-08  0.6292608E+01  0.5660094E-01 -0.1737413E-05 -0.3274181E-08
  0.1507071E+01 -0.5989661E-06  0.2647721E-07  0.6296465E+01  0.7855799E-01 -0.1580455E-05  0.6286427E-07
  0.1708081E+01  0.1056412E-06  0.4823960E-07  0.6307456E+01  0.1013182E+00 -0.1281326E-07  0.8380448E-07
  0.1909091E+01 -0.8331012E-06  0.5222682E-07  0.6309625E+01  0.1226682E+00 -0.2500158E-05  0.1457811E-06
  0.2110101E+01 -0.4264679E-06  0.3661262E-07  0.6321023E+01  0.1399843E+00 -0.1139160E-05  0.9482028E-07
  0.2311111E+01 -0.1029906E-05  0.3812602E-08  0.6329975E+01  0.1509317E+00 -0.2484348E-05 -0.4377216E-07
  0.2512121E+01 -0.1039717E-05  0.6577466E-08  0.6342596E+01  0.1532451E+00 -0.3014048E-05 -0.1341687E-07
  0.2713131E+01 -0.1825654E-05 -0.2938032E-07  0.6365020E+01  0.1455292E+00 -0.5022308E-05 -0.7558265E-07
  0.2914141E+01 -0.1964663E-05 -0.8317875E-07  0.6389434E+01  0.1277291E+00 -0.5970211E-05 -0.2540182E-06
  0.3115151E+01 -0.3448866E-05 -0.4163885E-06  0.6418983E+01  0.1006689E+00 -0.9873036E-05 -0.1234293E-05
  0.3316161E+01 -0.1273345E-05  0.7987546E-07  0.6466687E+01  0.6758048E-01 -0.3877607E-05  0.2135348E-06
  0.3517171E+01 -0.2066048E-05 -0.4277172E-06  0.6521561E+01  0.3380505E-01 -0.5999153E-05 -0.1153967E-05
  0.3718182E+01 -0.1152198E-05 -0.3968307E-07  0.6580765E+01  0.7087497E-02 -0.3437058E-05 -0.1161388E-06
  0.3919192E+01 -0.6709519E-06 -0.1014048E-05  0.6653843E+01 -0.1426743E-02 -0.1625635E-05 -0.2915644E-05
  0.4120202E+01 -0.2061919E-05 -0.9129362E-06  0.6744325E+01  0.2071734E-01 -0.5679659E-05 -0.2635847E-05
  0.4321212E+01  0.3148798E-06 -0.3277964E-06  0.6847211E+01  0.9140855E-01  0.1036237E-05 -0.9578071E-06
  0.4522222E+01  0.5196986E-06  0.4517497E-06  0.6957686E+01  0.2308628E+00  0.1698623E-05  0.1224631E-05
  0.4723232E+01 -0.1883060E-07  0.5951442E-06  0.7072251E+01  0.4580885E+00  0.3332327E-06  0.1724460E-05
  0.4924242E+01 -0.4949252E-05 -0.2993445E-05  0.7196405E+01  0.7997770E+00 -0.1403005E-04 -0.8442905E-05
  0.5125252E+01  0.1088558E-04  0.2505723E-05  0.7332769E+01  0.1288514E+01  0.3098781E-04  0.7037190E-05
  0.5326262E+01 -0.5812524E-05 -0.2146931E-05  0.7470485E+01  0.1943780E+01 -0.1683887E-04 -0.5688285E-05
  0.5527273E+01 -0.8228495E-06 -0.4743051E-05  0.7603458E+01  0.2788244E+01 -0.2328613E-05 -0.1429464E-04
  0.5728283E+01  0.8198339E-05  0.1299195E-04  0.7724901E+01  0.3846785E+01  0.2348872E-04  0.3572670E-04
  0.5929293E+01  0.7660374E-06  0.1639826E-05  0.7829887E+01  0.5139472E+01  0.2165073E-05  0.5037524E-05
  0.6130303E+01 -0.4032139E-05 -0.8627656E-05  0.7916313E+01  0.6673622E+01 -0.1184681E-04 -0.2338155E-04
  0.6331313E+01 -0.3199673E-05 -0.7394119E-05  0.7982583E+01  0.8458000E+01 -0.9483105E-05 -0.2156710E-04
  0.6532323E+01 -0.4131720E-05 -0.9137089E-05  0.8021626E+01  0.1048261E+02 -0.1125887E-04 -0.2540508E-04
  0.6733334E+01  0.5581019E-06 -0.2910383E-08  0.8028444E+01  0.1273748E+02  0.1494081E-05  0.1272652E-05
  0.6934343E+01  0.7910613E-06  0.4091766E-05  0.7995477E+01  0.1517811E+02  0.2144864E-05  0.1476891E-04
  0.7135354E+01  0.6960752E-06  0.8485746E-05  0.7921461E+01  0.1776207E+02  0.1865424E-05  0.2669240E-04
  0.7336363E+01  0.1557248E-05  0.1322536E-04  0.7803375E+01  0.2042837E+02  0.4404014E-05  0.4064618E-04
  0.7537374E+01  0.1161593E-05  0.7794297E-05  0.7643135E+01  0.2311179E+02  0.3415710E-05  0.2140040E-04
  0.7738384E+01 -0.5453106E-06 -0.9738724E-06  0.7445268E+01  0.2576774E+02 -0.1292570E-05 -0.2872897E-05
  0.7939394E+01 -0.1821027E-05 -0.2122833E-04  0.7211735E+01  0.2831479E+02 -0.5394107E-05 -0.6301666E-04
  0.8140405E+01 -0.1632708E-05 -0.2216839E-04  0.6949246E+01  0.3069778E+02 -0.4504906E-05 -0.6868818E-04
  0.8341414E+01 -0.1316359E-06 -0.8884759E-05  0.6663964E+01  0.3286694E+02 -0.6457861E-06 -0.2389826E-04
  0.8542424E+01  0.1035176E-05 -0.1672248E-05  0.6362098E+01  0.3477950E+02  0.2575564E-05 -0.3596040E-05
  0.8743435E+01 -0.6964067E-06 -0.1099582E-04  0.6051280E+01  0.3640110E+02 -0.1650158E-05 -0.3114102E-04
  0.8944445E+01  0.1040814E-05 -0.1529115E-05  0.5737538E+01  0.3772071E+02  0.2991663E-05 -0.2868299E-05
  0.9145455E+01  0.1755830E-05  0.1998839E-04  0.5426547E+01  0.3870416E+02  0.5116571E-05  0.6003940E-04
  0.9346465E+01  0.1810638E-05  0.1589427E-04  0.5124182E+01  0.3937173E+02  0.5352497E-05  0.4787347E-04
  0.9547475E+01  0.4660771E-06  0.9058102E-05  0.4833945E+01  0.3974306E+02  0.1368772E-05  0.2842338E-04
  0.9748485E+01  0.6371237E-06 -0.5640322E-07  0.4559495E+01  0.3982793E+02  0.1937452E-05  0.1006527E-05
  0.9949495E+01  0.9154569E-07  0.5385198E-05  0.4303927E+01  0.3964156E+02 -0.2995360E-08  0.1511816E-04
  0.1015051E+02  0.7358455E-07 -0.7611874E-05  0.4069071E+01  0.3921019E+02  0.3963657E-06 -0.2147793E-04
  0.1035151E+02  0.2055808E-06  0.5237816E-05  0.3855631E+01  0.3855442E+02  0.9202104E-06  0.1435005E-04
  0.1055252E+02 -0.2562953E-06  0.6151444E-05  0.3664172E+01  0.3770361E+02 -0.1170274E-05  0.2134172E-04
  0.1075354E+02 -0.2040441E-06  0.1207244E-04  0.3494504E+01  0.3668864E+02 -0.5761040E-06  0.3266404E-04
  0.1095455E+02 -0.1153170E-05  0.2481480E-04  0.3346018E+01  0.3554546E+02 -0.3100059E-05  0.6888597E-04
  0.1115556E+02 -0.8375221E-06  0.1812039E-04  0.3217798E+01  0.3429509E+02 -0.2528596E-05  0.5040481E-04
  0.1135657E+02 -0.9850727E-06  0.9749492E-05  0.3108729E+01  0.3295666E+02 -0.2865338E-05  0.2749567E-04
  0.1155758E+02 -0.7187834E-06  0.1764391E-04  0.3018397E+01  0.3154664E+02 -0.2147003E-05  0.5314825E-04
  0.1175859E+02 -0.5282880E-06  0.1198874E-04  0.2945282E+01  0.3009340E+02 -0.1626525E-05  0.3453624E-04
  0.1195960E+02 -0.5028999E-06  0.8661184E-05  0.2887845E+01  0.2861503E+02 -0.1445311E-05  0.2491241E-04
  0.1216061E+02 -0.2176551E-06  0.3133900E-06  0.2844734E+01  0.2712918E+02 -0.5517197E-06  0.9064097E-06
  0.1236162E+02 -0.3141672E-06  0.5187059E-05  0.2814288E+01  0.2563915E+02 -0.8435049E-06  0.1328171E-04
  0.1256263E+02  0.3278222E-06 -0.4766975E-05  0.2795462E+01  0.2417599E+02  0.1147600E-05 -0.1692469E-04
  0.1276364E+02  0.1066338E-05 -0.1235516E-04  0.2787020E+01  0.2273995E+02  0.3076282E-05 -0.3404461E-04
  0.1296465E+02  0.8288384E-06 -0.5736481E-05  0.2787299E+01  0.2132798E+02  0.2396434E-05 -0.1726625E-04
  0.1316566E+02  0.9978411E-06 -0.6462855E-05  0.2795031E+01  0.1996069E+02  0.2751455E-05 -0.1613714E-04
  0.1336667E+02  0.1470142E-06 -0.7750350E-06  0.2809665E+01  0.1863265E+02  0.5844338E-06 -0.9557698E-06
  0.1356768E+02  0.1546932E-05 -0.1258313E-04  0.2830121E+01  0.1735185E+02  0.4334651E-05 -0.3520167E-04
  0.1376869E+02  0.1077380E-05 -0.7786759E-05  0.2854404E+01  0.1612155E+02  0.2949401E-05 -0.2300728E-04
  0.1396970E+02 -0.5677390E-06  0.2638088E-05  0.2882037E+01  0.1494718E+02 -0.1793618E-05  0.6578397E-05
  0.1417071E+02 -0.5069769E-06 -0.6317568E-06  0.2911777E+01  0.1382359E+02 -0.1619645E-05 -0.4054804E-05
  0.1437172E+02  0.6918308E-06 -0.5218142E-05  0.2940046E+01  0.1276620E+02  0.2104006E-05 -0.1658214E-04
  0.1457273E+02  0.9982521E-07 -0.3320893E-05  0.2965948E+01  0.1172594E+02  0.1858462E-06 -0.7533818E-05
  0.1477374E+02 -0.7431044E-06 -0.1005715E-04  0.2981864E+01  0.1064748E+02 -0.2038683E-05 -0.2842420E-04
  0.1497475E+02 -0.1658559E-05  0.2458914E-04  0.2936982E+01  0.8991934E+01 -0.4893086E-05  0.6899354E-04
  0.1517576E+02  0.1865620E-07 -0.2392169E-04  0.3488856E+01  0.9357195E+01  0.1823889E-06 -0.6732380E-04
  0.1537677E+02 -0.1110554E-05 -0.2636138E-05  0.3254448E+01  0.9017100E+01 -0.3183878E-05 -0.8081319E-05
  0.1557778E+02 -0.1437717E-05  0.3117151E-05  0.3259529E+01  0.8185483E+01 -0.3977398E-05  0.8731731E-05
  0.1577879E+02  0.2232394E-05 -0.1300788E-04  0.3286314E+01  0.7453554E+01  0.6511967E-05 -0.3863568E-04
  0.1597980E+02  0.4181096E-05 -0.1475750E-04  0.3321168E+01  0.6790451E+01  0.1198775E-04 -0.4288077E-04
  0.1618081E+02  0.4495104E-05 -0.1776095E-04  0.3358917E+01  0.6174624E+01  0.1292873E-04 -0.5194079E-04
  0.1638182E+02  0.2330777E-05  0.5475682E-05  0.3397454E+01  0.5601834E+01  0.6812567E-05  0.1572951E-04
  0.1658283E+02  0.1966002E-05  0.1594495E-04  0.3436530E+01  0.5088799E+01  0.5910025E-05  0.4671485E-04
  0.1678384E+02  0.1645034E-05  0.1525573E-04  0.3474054E+01  0.4617003E+01  0.4757426E-05  0.4367038E-04
  0.1698485E+02  0.1968927E-05  0.3152742E-04  0.3510434E+01  0.4188578E+01  0.5734607E-05  0.9120378E-04
  0.1718586E+02  0.1345026E-05  0.3228780E-04  0.3546036E+01  0.3800304E+01  0.3830235E-05  0.9205226E-04
  0.1738687E+02  0.1271090E-05  0.1599963E-04  0.3580104E+01  0.3444696E+01  0.3527557E-05  0.4680826E-04
  0.1758788E+02  0.3035662E-05  0.7791365E-05  0.3611209E+01  0.3126871E+01  0.8460119E-05  0.2243131E-04
  0.1778889E+02  0.3388362E-05  0.1121822E-04  0.3642025E+01  0.2829710E+01  0.9709814E-05  0.3269719E-04
  0.1798990E+02  0.1905106E-05  0.1284349E-04  0.3671580E+01  0.2557683E+01  0.5308620E-05  0.3742099E-04
  0.1819091E+02  0.1020257E-05  0.2132114E-04  0.3700494E+01  0.2307725E+01  0.3154153E-05  0.6149732E-04
  0.1839192E+02 -0.1537357E-06  0.2474124E-04  0.3727999E+01  0.2085158E+01 -0.4067211E-06  0.7167614E-04
  0.1859293E+02 -0.2063714E-07  0.2491843E-04  0.3754114E+01  0.1883827E+01 -0.2047685E-06  0.7139891E-04
  0.1879394E+02 -0.5561987E-06  0.1787692E-04  0.3779773E+01  0.1699505E+01 -0.1166709E-05  0.5109036E-04
  0.1899495E+02 -0.4999100E-06  0.1400669E-04  0.3804048E+01  0.1536457E+01 -0.1473254E-05  0.4051589E-04
  0.1919596E+02 -0.4803143E-06  0.6388140E-05  0.3826841E+01  0.1392116E+01 -0.1339058E-05  0.1801996E-04
  0.1939697E+02  0.7414293E-06  0.2033401E-05  0.3848621E+01  0.1258868E+01  0.1804935E-05  0.5768692E-05
  0.1959798E+02  0.2986147E-05  0.1333313E-03  0.3869485E+01  0.1140664E+01  0.8696028E-05  0.3842002E-03
  0.1979899E+02 -0.8668327E-06  0.1786410E-04  0.3890866E+01  0.1032204E+01 -0.2514135E-05  0.5154603E-04
  0.2000000E+02  0.1573935E-07 -0.2733733E-05  0.3909878E+01  0.9308264E+00 -0.8381903E-07 -0.8110805E-05
Zone t="Motion of body    1 in DoF   3",I=   100,F=POINT
  0.1000000E+00  0.2720802E+02 -0.1568218E-10 -0.2388842E-05 -0.1956261E-09  0.7836163E+02 -0.4515916E-10
  0.3010101E+00  0.2722149E+02  0.9297673E-07 -0.2668181E-05 -0.4818594E-08  0.7840041E+02  0.2677913E-06
  0.5020202E+00  0.2726915E+02  0.3223785E-05 -0.1664997E-05 -0.2215946E-07  0.7853778E+02  0.9284853E-05
  0.7030303E+00  0.2750145E+02  0.3537010E-04 -0.2959438E-05 -0.5378041E-07  0.7920667E+02  0.1018701E-03
  0.9040404E+00  0.2765983E+02  0.2049079E-03 -0.1877499E-05 -0.1015217E-06  0.7966296E+02  0.5901577E-03
  0.1105051E+01  0.2776786E+02  0.8294095E-03 -0.1608037E-05 -0.1963948E-06  0.7997411E+02  0.2388795E-02
  0.1306061E+01  0.2789729E+02  0.2651933E-02 -0.1365900E-05 -0.2635584E-06  0.8034676E+02  0.7637870E-02
  0.1507071E+01  0.2805731E+02  0.7165075E-02 -0.1312565E-05 -0.1965303E-06  0.8080763E+02  0.2063624E-01
  0.1708081E+01  0.2822056E+02  0.1704304E-01 -0.2666248E-06 -0.8473489E-07  0.8127785E+02  0.4908572E-01
  0.1909091E+01  0.2844355E+02  0.3674836E-01  0.1931829E-06  0.4845015E-07  0.8191994E+02  0.1058391E+00
  0.2110101E+01  0.2867109E+02  0.7318886E-01  0.2118547E-07 -0.2696925E-07  0.8257530E+02  0.2107918E+00
  0.2311111E+01  0.2895745E+02  0.1367099E+00 -0.9292630E-06  0.3175792E-06  0.8340024E+02  0.3937388E+00
  0.2512121E+01  0.2927942E+02  0.2419554E+00 -0.1590439E-05  0.4775538E-06  0.8432735E+02  0.6968580E+00
  0.2713131E+01  0.2963231E+02  0.4091262E+00 -0.2780102E-05  0.1030356E-05  0.8534386E+02  0.1178323E+01
  0.2914141E+01  0.3005562E+02  0.6656968E+00 -0.2766987E-05  0.1264678E-05  0.8656271E+02  0.1917271E+01
  0.3115151E+01  0.3053058E+02  0.1047243E+01 -0.6919855E-05  0.2294677E-05  0.8793080E+02  0.3016159E+01
  0.3316161E+01  0.3103727E+02  0.1599262E+01 -0.2888757E-05  0.1788751E-05  0.8939008E+02  0.4606008E+01
  0.3517171E+01  0.3161937E+02  0.2381251E+01 -0.4056630E-05  0.2710207E-05  0.9106639E+02  0.6858217E+01
  0.3718182E+01  0.3227575E+02  0.3466787E+01 -0.4076278E-05  0.2676039E-05  0.9295718E+02  0.9984646E+01
  0.3919192E+01  0.3297991E+02  0.4943861E+01 -0.1823107E-05  0.2334593E-05  0.9498505E+02  0.1423874E+02
  0.4120202E+01  0.3373402E+02  0.6921978E+01 -0.4740471E-05  0.2712361E-05  0.9715660E+02  0.1993586E+02
  0.4321212E+01  0.3455604E+02  0.9537793E+01 -0.3556568E-05  0.1323642E-06  0.9952419E+02  0.2746954E+02
  0.4522222E+01  0.3544828E+02  0.1295603E+02 -0.2339107E-05 -0.3656605E-06  0.1020940E+03  0.3731439E+02
  0.4723232E+01  0.3639401E+02  0.1736670E+02 -0.2425303E-05 -0.4817266E-06  0.1048179E+03  0.5001731E+02
  0.4924242E+01  0.3735519E+02  0.2297870E+02 -0.1232977E-04  0.7983996E-05  0.1075856E+03  0.6618021E+02
  0.5125252E+01  0.3831524E+02  0.3004239E+02  0.1412343E-04  0.1729885E-04  0.1103509E+03  0.8652408E+02
  0.5326262E+01  0.3926185E+02  0.3885714E+02 -0.1205239E-04  0.4554167E-06  0.1130769E+03  0.1119106E+03
  0.5527273E+01  0.4017036E+02  0.4976134E+02 -0.5358842E-05  0.1430791E-04  0.1156936E+03  0.1433154E+03
  0.5728283E+01  0.4098011E+02  0.6309563E+02  0.1382933E-04  0.1626089E-04  0.1180257E+03  0.1817190E+03
  0.5929293E+01  0.4161726E+02  0.7917390E+02  0.2591679E-05 -0.2811011E-04  0.1198604E+03  0.2280253E+03
  0.6130303E+01  0.4197505E+02  0.9820913E+02 -0.5299009E-05 -0.6199535E-04  0.1208909E+03  0.2828476E+03
  0.6331313E+01  0.4194321E+02  0.1202925E+03 -0.2065842E-05 -0.6822124E-04  0.1207992E+03  0.3464475E+03
  0.6532323E+01  0.4141172E+02  0.1453116E+03 -0.2285135E-05 -0.6294902E-04  0.1192683E+03  0.4185028E+03
  0.6733334E+01  0.4025638E+02  0.1728275E+03  0.2203085E-05 -0.1261383E-04  0.1159411E+03  0.4977500E+03
  0.6934343E+01  0.3837333E+02  0.2019573E+03  0.1813666E-05 -0.9198673E-05  0.1105177E+03  0.5816444E+03
  0.7135354E+01  0.3569927E+02  0.2313484E+03 -0.1765183E-05  0.1701154E-04  0.1028160E+03  0.6662905E+03
  0.7336363E+01  0.3222433E+02  0.2590417E+03 -0.5179400E-07  0.1352094E-04  0.9280805E+02  0.7460460E+03
  0.7537374E+01  0.2805126E+02  0.2828305E+03 -0.1422677E-05  0.2245046E-04  0.8078930E+02  0.8145576E+03
  0.7738384E+01  0.2337675E+02  0.3006014E+03  0.7413624E-06 -0.1621153E-04  0.6732673E+02  0.8657393E+03
  0.7939394E+01  0.1848961E+02  0.3107595E+03 -0.1585011E-05 -0.1758151E-04  0.5325177E+02  0.8949910E+03
  0.8140405E+01  0.1371040E+02  0.3126405E+03 -0.1323694E-05 -0.1522712E-04  0.3948758E+02  0.9004086E+03
  0.8341414E+01  0.9330351E+01  0.3065052E+03  0.2793494E-06 -0.1887232E-04  0.2687288E+02  0.8827378E+03
  0.8542424E+01  0.5558835E+01  0.2934985E+03  0.3837617E-06  0.7350929E-05  0.1601098E+02  0.8452769E+03
  0.8743435E+01  0.2517077E+01  0.2752369E+03  0.2895126E-06 -0.2277736E-04  0.7250717E+01  0.7926843E+03
  0.8944445E+01  0.2200309E+00  0.2535484E+03 -0.7954998E-07  0.1857057E-05  0.6352701E+00  0.7302206E+03
  0.9145455E+01 -0.1370272E+01  0.2300872E+03 -0.4531634E-06  0.2550008E-04 -0.3944710E+01  0.6626497E+03
  0.9346465E+01 -0.2351530E+01  0.2062268E+03  0.2038524E-05  0.1428265E-04 -0.6770656E+01  0.5939294E+03
  0.9547475E+01 -0.2831917E+01  0.1828999E+03  0.3062960E-06  0.1163140E-04 -0.8154069E+01  0.5267494E+03
  0.9748485E+01 -0.2914374E+01  0.1607374E+03  0.9419762E-06 -0.4285015E-05 -0.8391493E+01  0.4629208E+03
  0.9949495E+01 -0.2687328E+01  0.1402115E+03  0.8237241E-06 -0.2211891E-08 -0.7737489E+01  0.4038056E+03
  0.1015051E+02 -0.2235208E+01  0.1214956E+03  0.7872262E-06  0.2741930E-05 -0.6435333E+01  0.3499044E+03
  0.1035151E+02 -0.1627930E+01  0.1046105E+03  0.1234025E-05  0.5685026E-05 -0.4686360E+01  0.3012742E+03
  0.1055252E+02 -0.9176623E+00  0.8955303E+02  0.1066838E-05  0.2087327E-05 -0.2640715E+01  0.2579094E+03
  0.1075354E+02 -0.1451344E+00  0.7622990E+02  0.1551982E-05  0.1611561E-04 -0.4157838E+00  0.2195389E+03
  0.1095455E+02  0.6585190E+00  0.6450651E+02  0.2661711E-05  0.2346816E-04  0.1898787E+01  0.1857754E+03
  0.1115556E+02  0.1470093E+01  0.5425495E+02  0.1733484E-05  0.1503550E-04  0.4236164E+01  0.1562510E+03
  0.1135657E+02  0.2275582E+01  0.4535020E+02  0.9667031E-06  0.1061778E-04  0.6556024E+01  0.1306058E+03
  0.1155758E+02  0.3061631E+01  0.3767282E+02  0.5315130E-06  0.2616527E-04  0.8819863E+01  0.1084949E+03
  0.1175859E+02  0.3819217E+01  0.3109900E+02  0.5861066E-06  0.1337589E-04  0.1100173E+02  0.8956275E+02
  0.1195960E+02  0.4541332E+01  0.2546882E+02  0.2362648E-05  0.1505879E-04  0.1308141E+02  0.7334805E+02
  0.1216061E+02  0.5226123E+01  0.2070319E+02  0.1651789E-05  0.6795861E-05  0.1505362E+02  0.5962307E+02
  0.1236162E+02  0.5871166E+01  0.1666799E+02  0.1235574E-05  0.1620816E-04  0.1691134E+02  0.4800178E+02
  0.1256263E+02  0.6474267E+01  0.1327672E+02  0.2750978E-05  0.3447291E-05  0.1864834E+02  0.3823537E+02
  0.1276364E+02  0.7036979E+01  0.1047310E+02  0.2011550E-05 -0.6519258E-08  0.2026887E+02  0.3016098E+02
  0.1296465E+02  0.7561145E+01  0.8166703E+01  0.2072024E-05 -0.2912711E-05  0.2177853E+02  0.2351875E+02
  0.1316566E+02  0.8044250E+01  0.6325408E+01  0.1602941E-05 -0.3690366E-07  0.2316986E+02  0.1821596E+02
  0.1336667E+02  0.8491522E+01  0.4842533E+01 -0.2998812E-06  0.4104397E-05  0.2445805E+02  0.1394550E+02
  0.1356768E+02  0.8902270E+01  0.3668303E+01  0.1757528E-05 -0.1338031E-04  0.2564102E+02  0.1056383E+02
  0.1376869E+02  0.9280990E+01  0.2759173E+01  0.2724564E-06 -0.5205191E-05  0.2673171E+02  0.7945622E+01
  0.1396970E+02  0.9629326E+01  0.2070399E+01 -0.1097344E-05 -0.3340654E-05  0.2773495E+02  0.5962103E+01
  0.1417071E+02  0.9949037E+01  0.1543687E+01 -0.5499589E-06  0.1933397E-05  0.2865563E+02  0.4445250E+01
  0.1437172E+02  0.1023989E+02  0.1167825E+01  0.3908883E-06  0.1452805E-05  0.2949327E+02  0.3362842E+01
  0.1457273E+02  0.1050917E+02  0.8898506E+00 -0.3589106E-06 -0.6966438E-06  0.3026888E+02  0.2562402E+01
  0.1477374E+02  0.1075559E+02  0.6976665E+00 -0.2249738E-05 -0.4764319E-05  0.3097860E+02  0.2009016E+01
  0.1497475E+02  0.1098164E+02  0.5647207E+00 -0.9672234E-06 -0.1124924E-05  0.3162955E+02  0.1626231E+01
  0.1517576E+02  0.1118889E+02  0.4696568E+00  0.2443963E-05 -0.2610912E-04  0.3222638E+02  0.1352530E+01
  0.1537677E+02  0.1138046E+02  0.4164256E+00 -0.1216182E-06  0.4123765E-05  0.3277813E+02  0.1199292E+01