VARIABLES="w (rad/s)"
"A   1   1" "B   1   1"
"A   1   2" "B   1   2"
"A   1   3" "B   1   3"
Zone t="Motion of body    1 in DoF   1",I=    32,F=POINT
  0.1000000E+00  0.8739454E+05  0.1542225E-02 -0.4353821E-02 -0.6165519E-05  0.1884803E+06  0.3396344E-02
  0.2000000E+00  0.8833595E+05  0.1965600E+00 -0.4820377E-02 -0.3665784E-04  0.1905441E+06  0.4313332E+00
  0.3000000E+00  0.8910238E+05  0.3310019E+01 -0.4864831E-02 -0.7938941E-04  0.1921494E+06  0.7258189E+01
  0.4000000E+00  0.9060201E+05  0.2433474E+02  0.7482618E-03 -0.2764833E-04  0.1952749E+06  0.5330569E+02
  0.5000000E+00  0.9243562E+05  0.1132158E+03 -0.6655693E-02 -0.6626503E-03  0.1991112E+06  0.2476768E+03
  0.6000001E+00  0.9476698E+05  0.3938746E+03 -0.1089026E-01 -0.2161280E-02  0.2040132E+06  0.8602939E+03
  0.7000000E+00  0.9829091E+05  0.1122439E+04 -0.9787934E-02 -0.2471228E-02  0.2113897E+06  0.2446491E+04
  0.8000001E+00  0.1024421E+06  0.2753227E+04 -0.3631070E-01 -0.1398511E-01  0.2200957E+06  0.5986757E+04
  0.9000000E+00  0.1072106E+06  0.6015175E+04 -0.8781089E-02  0.1110781E-02  0.2300306E+06  0.1304217E+05
  0.1000000E+01  0.1126469E+06  0.1193527E+05  0.1960754E-02  0.8639321E-03  0.2412584E+06  0.2579233E+05
  0.1100000E+01  0.1176958E+06  0.2178158E+05 -0.2604506E-02 -0.7441819E-02  0.2514776E+06  0.4688290E+05
  0.1200000E+01  0.1207498E+06  0.3663675E+05 -0.2452334E-02  0.1648785E-01  0.2573341E+06  0.7852136E+05
  0.1300000E+01  0.1209592E+06  0.5687371E+05 -0.4873918E-02 -0.4272486E-01  0.2569527E+06  0.1212883E+06
  0.1400000E+01  0.1166113E+06  0.8119768E+05 -0.6823199E-02 -0.2824339E-01  0.2467706E+06  0.1721859E+06
  0.1500000E+01  0.1072752E+06  0.1065183E+06 -0.1529090E-01  0.5955100E-03  0.2260909E+06  0.2244446E+06
  0.1600000E+01  0.9399356E+05  0.1287852E+06  0.5243346E-02  0.3386617E-02  0.1973425E+06  0.2694588E+06
  0.1700000E+01  0.7884272E+05  0.1448379E+06 -0.9463674E-02  0.1463097E-01  0.1650629E+06  0.3007020E+06
  0.1800000E+01  0.6402372E+05  0.1534813E+06 -0.7085668E-03 -0.5376190E-02  0.1339382E+06  0.3159522E+06
  0.1900000E+01  0.5103237E+05  0.1553320E+06 -0.1470980E-02 -0.1251632E-01  0.1070731E+06  0.3168144E+06
  0.2000000E+01  0.4055796E+05  0.1519854E+06 -0.2664447E-02 -0.1135454E-01  0.8579974E+05  0.3068876E+06
  0.2100000E+01  0.3261580E+05  0.1451179E+06  0.1182726E-02 -0.7955968E-02  0.7004512E+05  0.2898806E+06
  0.2200000E+01  0.2688769E+05  0.1361560E+06  0.6131746E-02 -0.1423016E-01  0.5905091E+05  0.2688432E+06
  0.2300000E+01  0.2299230E+05  0.1261430E+06 -0.6937877E-02  0.5505458E-02  0.5194110E+05  0.2460110E+06
  0.2400000E+01  0.2053562E+05  0.1158127E+06  0.5063514E-02  0.2612688E-02  0.4783068E+05  0.2229355E+06
  0.2500000E+01  0.1916669E+05  0.1056081E+06  0.1088104E-01  0.1613149E-01  0.4596558E+05  0.2005361E+06
  0.2600000E+01  0.1860883E+05  0.9582910E+05  0.2023321E-01  0.1175200E-01  0.4572599E+05  0.1793954E+06
  0.2700000E+01  0.1863950E+05  0.8667790E+05 -0.3094585E-02  0.1063349E-01  0.4662834E+05  0.1599076E+06
  0.2800000E+01  0.1908045E+05  0.7821235E+05  0.3621067E-02  0.9274039E-02  0.4829227E+05  0.1421297E+06
  0.2900000E+01  0.1976319E+05  0.7044670E+05  0.2214415E-02  0.8666897E-03  0.5037720E+05  0.1260287E+06
  0.3000000E+01  0.2057042E+05  0.6333656E+05  0.2307177E-02  0.2855625E-02  0.5264707E+05  0.1113533E+06
  0.3100000E+01  0.2112914E+05  0.5631974E+05 -0.2676287E-02  0.8433819E-02  0.5449460E+05  0.9631731E+05
  0.3200000E+01  0.2359457E+05  0.5220595E+05  0.6434917E-02  0.3017634E-02  0.5937711E+05  0.9143002E+05
Zone t="Motion of body    1 in DoF   2",I=    32,F=POINT
  0.1000000E+00 -0.2770424E-02 -0.5285256E-06  0.9503664E+05  0.9631227E+02 -0.3741980E-02 -0.2061948E-05
  0.2000000E+00  0.1834035E-02  0.1385435E-04  0.9716481E+05  0.7435948E+03 -0.6675720E-04 -0.1434982E-04
  0.3000000E+00 -0.3671646E-03  0.2771616E-05  0.9811440E+05  0.2362716E+04 -0.6281535E-02  0.7501245E-04
  0.4000000E+00  0.1165867E-02  0.1140237E-03  0.9778270E+05  0.5139980E+04  0.3854036E-02  0.3206730E-04
  0.5000000E+00 -0.3525257E-02 -0.1379251E-03  0.9589857E+05  0.8981013E+04 -0.4060745E-02 -0.2418756E-03
  0.6000001E+00  0.8451937E-03  0.2021790E-03  0.9252850E+05  0.1354080E+05  0.4762013E-02  0.3004074E-04
  0.7000000E+00 -0.9935243E-02 -0.1643896E-03  0.8800420E+05  0.1831407E+05 -0.2601760E-01 -0.1596689E-02
  0.8000001E+00 -0.2338290E-01  0.1792908E-03  0.8273509E+05  0.2276343E+05 -0.5168080E-01  0.2038240E-02
  0.9000000E+00  0.1324548E-04 -0.2957582E-03  0.7724495E+05  0.2640041E+05  0.7592307E-02 -0.1363993E-02
  0.1000000E+01  0.1168156E-01  0.7357597E-03  0.7191967E+05  0.2889177E+05  0.2709866E-01  0.2570629E-02
  0.1100000E+01  0.8124871E-02  0.7693768E-03  0.6713758E+05  0.3003329E+05  0.2189289E-01  0.1089096E-02
  0.1200000E+01 -0.2163410E-01 -0.3918767E-02  0.6310620E+05  0.2983492E+05 -0.4657904E-01 -0.9910583E-02
  0.1300000E+01  0.1123098E-01  0.1238108E-02  0.5997086E+05  0.2839007E+05  0.2123173E-01  0.9627342E-03
  0.1400000E+01 -0.1243625E-01 -0.5089164E-02  0.5775126E+05  0.2591728E+05 -0.2989633E-01 -0.1107454E-01
  0.1500000E+01 -0.2871799E-01 -0.2101409E-01  0.5643096E+05  0.2269300E+05 -0.6041908E-01 -0.4606581E-01
  0.1600000E+01  0.5116463E-02  0.1918316E-02  0.5589391E+05  0.1902634E+05  0.1025856E-01  0.5237341E-02
  0.1700000E+01 -0.1346953E-01 -0.1758778E-01  0.5602411E+05  0.1523949E+05 -0.2510127E-01 -0.3511655E-01
  0.1800000E+01  0.1647472E-02 -0.3111362E-03  0.5664702E+05  0.1158598E+05  0.4136827E-02  0.2605915E-02
  0.1900000E+01  0.1231244E-02  0.1188076E-01  0.5762651E+05  0.8311173E+04  0.1514836E-02  0.2500522E-01
  0.2000000E+01 -0.2745628E-02  0.5895913E-02  0.5880568E+05  0.5557683E+04 -0.4790306E-02  0.1540244E-01
  0.2100000E+01 -0.5276998E-03  0.8023411E-02  0.6004808E+05  0.3397490E+04 -0.4593986E-02  0.1677483E-01
  0.2200000E+01 -0.4031441E-04  0.1197554E-01  0.6125454E+05  0.1864379E+04 -0.8669766E-03  0.2459404E-01
  0.2300000E+01 -0.4725663E-02  0.2797324E-02  0.6233673E+05  0.8823195E+03 -0.6747868E-02  0.5467728E-02
  0.2400000E+01  0.3326734E-02  0.8370218E-02  0.6322016E+05  0.3538623E+03  0.7820129E-02  0.1698850E-01
  0.2500000E+01  0.3910446E-02  0.9329589E-02  0.6271921E+05  0.2785637E+03  0.9446716E-02  0.2044655E-01
  0.2600000E+01  0.3247628E-02  0.1439677E-01  0.6524182E+05  0.5067174E+03  0.1190039E-01  0.2788539E-01
  0.2700000E+01  0.4040400E-02  0.1219911E-02  0.6561912E+05  0.6924285E+03  0.1105273E-01  0.3154516E-02
  0.2800000E+01  0.5909375E-03  0.1247434E-01  0.6599952E+05  0.1027536E+04  0.1882144E-02  0.2687100E-01
  0.2900000E+01  0.5482312E-02  0.1940096E-02  0.6632180E+05  0.1448783E+04  0.1348956E-01  0.4653368E-02
  0.3000000E+01  0.5184492E-02  0.6339702E-02  0.6658926E+05  0.1925169E+04  0.1199786E-01  0.1371284E-01
  0.3100000E+01 -0.9801311E-03  0.1258738E-03  0.6681231E+05  0.2490595E+04 -0.3359395E-03  0.1984545E-02
  0.3200000E+01  0.1702607E-02  0.8974439E-03  0.6696675E+05  0.3107710E+04  0.6308556E-02  0.2842721E-02
Zone t="Motion of body    1 in DoF   3",I=    32,F=POINT
  0.1000000E+00  0.1886062E+06  0.3406383E-02 -0.1384627E-01 -0.2263610E-04  0.4278703E+06  0.7516683E-02
  0.2000000E+00  0.1906902E+06  0.4316797E+00 -0.4002787E-02 -0.2586089E-04  0.4325138E+06  0.9472690E+00
  0.3000000E+00  0.1922950E+06  0.7263809E+01 -0.1203537E-01 -0.2061876E-03  0.4358381E+06  0.1592791E+02
  0.4000000E+00  0.1954100E+06  0.5335138E+02 -0.1071859E-02  0.3081684E-03  0.4423492E+06  0.1168671E+03
  0.5000000E+00  0.1992533E+06  0.2478983E+03 -0.8092105E-02 -0.1101608E-02  0.4503997E+06  0.5423147E+03
  0.6000001E+00  0.2041732E+06  0.8610342E+03 -0.1384991E-01 -0.4081971E-02  0.4607646E+06  0.1880656E+04
  0.7000000E+00  0.2115470E+06  0.2448916E+04 -0.1697785E-01 -0.6116752E-02  0.4762105E+06  0.5337729E+04
  0.8000001E+00  0.2202722E+06  0.5992729E+04 -0.1030437E+00 -0.4510428E-01  0.4945400E+06  0.1303092E+05
  0.9000000E+00  0.2302310E+06  0.1305542E+05 -0.1845310E-02  0.5734168E-02  0.5152944E+06  0.2830686E+05
  0.1000000E+01  0.2414760E+06  0.2582074E+05  0.1382906E-01  0.6695405E-02  0.5385521E+06  0.5579886E+05
  0.1100000E+01  0.2517255E+06  0.4694183E+05  0.2619522E-02 -0.1139593E-01  0.5592818E+06  0.1010383E+06
  0.1200000E+01  0.2575969E+06  0.7860718E+05 -0.1858873E-01 -0.1671702E-02  0.5704610E+06  0.1684729E+06
  0.1300000E+01  0.2572312E+06  0.1214184E+06 -0.5058325E-02 -0.5718213E-01  0.5680026E+06  0.2589355E+06
  0.1400000E+01  0.2470517E+06  0.1723807E+06 -0.2319996E-01 -0.6945091E-01  0.5444651E+06  0.3655457E+06
  0.1500000E+01  0.2263602E+06  0.2247112E+06 -0.3899765E-01 -0.2176172E-01  0.4988462E+06  0.4734884E+06
  0.1600000E+01  0.1975892E+06  0.2698119E+06  0.5072877E-02  0.5738735E-03  0.4367333E+06  0.5645274E+06
  0.1700000E+01  0.1652757E+06  0.3011316E+06 -0.1457078E-01  0.1669157E-01  0.3680679E+06  0.6251863E+06
  0.1800000E+01  0.1341086E+06  0.3164477E+06  0.2050334E-02 -0.1471364E-01  0.3027425E+06  0.6514149E+06
  0.1900000E+01  0.1072036E+06  0.3173631E+06 -0.7043011E-02 -0.1919371E-01  0.2472736E+06  0.6472746E+06
  0.2000000E+01  0.8588930E+05  0.3074693E+06 -0.1090938E-01 -0.1073462E-01  0.2041569E+06  0.6208149E+06
  0.2100000E+01  0.7009843E+05  0.2904921E+06 -0.6124519E-02 -0.1590025E-01  0.1729916E+06  0.5802082E+06
  0.2200000E+01  0.5906870E+05  0.2694684E+06  0.4772056E-02 -0.2904737E-01  0.1520471E+06  0.5320195E+06
  0.2300000E+01  0.5193359E+05  0.2466369E+06 -0.1391354E-01  0.1727560E-01  0.1393008E+06  0.4809503E+06
  0.2400000E+01  0.4779875E+05  0.2235664E+06 -0.8678933E-03  0.5128637E-02  0.1327514E+06  0.4302286E+06
  0.2500000E+01  0.4591015E+05  0.2011634E+06  0.1758661E-01  0.2620386E-01  0.1308036E+06  0.3819056E+06
  0.2600000E+01  0.4565358E+05  0.1800133E+06  0.4502544E-01  0.1195295E-01  0.1320768E+06  0.3369756E+06
  0.2700000E+01  0.4653766E+05  0.1605115E+06 -0.2124133E-02  0.8737385E-02  0.1355228E+06  0.2961202E+06
  0.2800000E+01  0.4818966E+05  0.1427745E+06  0.7570216E-02  0.1533355E-01  0.1403471E+06  0.2594685E+06
  0.2900000E+01  0.5026866E+05  0.1267336E+06  0.3424266E-02 -0.1454441E-02  0.1458356E+06  0.2268345E+06
  0.3000000E+01  0.5253139E+05  0.1122740E+06  0.9704351E-02  0.3216550E-02  0.1515306E+06  0.1975318E+06
  0.3100000E+01  0.5430044E+05  0.9841364E+05 -0.3164545E-02 -0.1582295E-02  0.1563372E+06  0.1684034E+06
  0.3200000E+01  0.5936771E+05  0.8936730E+05  0.9582862E-02 -0.9238645E-03  0.1664746E+06  0.1565621E+06
