 VARIABLES="Time (s)"
"AddedMass    1" "IRF    1"
"AddedMass    2" "IRF    2"
"AddedMass    3" "IRF    3"
Zone t="DoF    1",I=   160,F=POINT
  0.0000000E+00  0.9091852E+05  0.9620856E+05 -0.3491459E-03 -0.2194140E-02 -0.9183536E+05 -0.7807180E+05
  0.1000000E+00  0.9091852E+05  0.9464109E+05 -0.3491459E-03 -0.2109468E-02 -0.9183536E+05 -0.7706527E+05
  0.2000000E+00  0.9091852E+05  0.8999777E+05 -0.3491459E-03 -0.1860970E-02 -0.9183536E+05 -0.7406915E+05
  0.3000000E+00  0.9091852E+05  0.8245326E+05 -0.3491459E-03 -0.1464781E-02 -0.9183536E+05 -0.6915348E+05
  0.4000000E+00  0.9091852E+05  0.7229044E+05 -0.3491459E-03 -0.9464485E-03 -0.9183536E+05 -0.6243469E+05
  0.5000000E+00  0.9091852E+05  0.5988839E+05 -0.3491459E-03 -0.3390308E-03 -0.9183536E+05 -0.5407437E+05
  0.6000000E+00  0.9091852E+05  0.4570641E+05 -0.3491459E-03  0.3193435E-03 -0.9183536E+05 -0.4427791E+05
  0.7000000E+00  0.9091852E+05  0.3026482E+05 -0.3491459E-03  0.9882522E-03 -0.9183536E+05 -0.3329188E+05
  0.8000000E+00  0.9091852E+05  0.1412340E+05 -0.3491459E-03  0.1627875E-02 -0.9183536E+05 -0.2140033E+05
  0.9000000E+00  0.9091852E+05 -0.2141593E+04 -0.3491459E-03  0.2201759E-02 -0.9183536E+05 -0.8919725E+04
  0.1000000E+01  0.9091852E+05 -0.1796056E+05 -0.3491459E-03  0.2679262E-02 -0.9183536E+05  0.3807751E+04
  0.1100000E+01  0.9091852E+05 -0.3279320E+05 -0.3491459E-03  0.3037451E-02 -0.9183536E+05  0.1642256E+05
  0.1200000E+01  0.9091852E+05 -0.4614911E+05 -0.3491459E-03  0.3262345E-02 -0.9183536E+05  0.2855766E+05
  0.1300000E+01  0.9091852E+05 -0.5760616E+05 -0.3491459E-03  0.3349406E-02 -0.9183536E+05  0.3984989E+05
  0.1400000E+01  0.9091852E+05 -0.6682520E+05 -0.3491459E-03  0.3303257E-02 -0.9183536E+05  0.4995219E+05
  0.1500000E+01  0.9091852E+05 -0.7356102E+05 -0.3491459E-03  0.3136682E-02 -0.9183536E+05  0.5854661E+05
  0.1600000E+01  0.9091852E+05 -0.7766902E+05 -0.3491459E-03  0.2869019E-02 -0.9183536E+05  0.6535696E+05
  0.1700000E+01  0.9091852E+05 -0.7910737E+05 -0.3491459E-03  0.2524089E-02 -0.9183536E+05  0.7016107E+05
  0.1800000E+01  0.9091852E+05 -0.7793488E+05 -0.3491459E-03  0.2127869E-02 -0.9183536E+05  0.7280125E+05
  0.1900000E+01  0.9091852E+05 -0.7430471E+05 -0.3491459E-03  0.1706126E-02 -0.9183536E+05  0.7319302E+05
  0.2000000E+01  0.9091852E+05 -0.6845437E+05 -0.3491459E-03  0.1282192E-02 -0.9183536E+05  0.7133069E+05
  0.2100000E+01  0.9091852E+05 -0.6069264E+05 -0.3491459E-03  0.8751089E-03 -0.9183536E+05  0.6728992E+05
  0.2200000E+01  0.9091852E+05 -0.5138423E+05 -0.3491459E-03  0.4982793E-03 -0.9183536E+05  0.6122675E+05
  0.2300000E+01  0.9091852E+05 -0.4093254E+05 -0.3491459E-03  0.1587274E-03 -0.9183536E+05  0.5337259E+05
  0.2400000E+01  0.9091852E+05 -0.2976201E+05 -0.3491459E-03 -0.1429723E-03 -0.9183536E+05  0.4402598E+05
  0.2500000E+01  0.9091852E+05 -0.1830038E+05 -0.3491459E-03 -0.4121087E-03 -0.9183536E+05  0.3354060E+05
  0.2600000E+01  0.9091852E+05 -0.6961594E+04 -0.3491459E-03 -0.6586771E-03 -0.9183536E+05  0.2231081E+05
  0.2700000E+01  0.9091852E+05  0.3869433E+04 -0.3491459E-03 -0.8957570E-03 -0.9183536E+05  0.1075481E+05
  0.2800000E+01  0.9091852E+05  0.1385027E+05 -0.3491459E-03 -0.1137596E-02 -0.9183536E+05 -0.7033636E+03
  0.2900000E+01  0.9091852E+05  0.2269164E+05 -0.3491459E-03 -0.1397593E-02 -0.9183536E+05 -0.1165229E+05
  0.3000000E+01  0.9091852E+05  0.3016527E+05 -0.3491459E-03 -0.1686356E-02 -0.9183536E+05 -0.2171067E+05
  0.3100000E+01  0.9091852E+05  0.3610888E+05 -0.3491459E-03 -0.2010060E-02 -0.9183536E+05 -0.3054379E+05
  0.3200000E+01  0.9091852E+05  0.4042780E+05 -0.3491459E-03 -0.2369210E-02 -0.9183536E+05 -0.3787699E+05
  0.3300000E+01  0.9091852E+05  0.4309409E+05 -0.3491459E-03 -0.2757988E-02 -0.9183536E+05 -0.4350638E+05
  0.3400000E+01  0.9091852E+05  0.4414262E+05 -0.3491459E-03 -0.3164194E-02 -0.9183536E+05 -0.4730573E+05
  0.3500000E+01  0.9091852E+05  0.4366507E+05 -0.3491459E-03 -0.3569839E-02 -0.9183536E+05 -0.4922932E+05
  0.3600000E+01  0.9091852E+05  0.4180209E+05 -0.3491459E-03 -0.3952330E-02 -0.9183536E+05 -0.4931093E+05
  0.3700000E+01  0.9091852E+05  0.3873380E+05 -0.3491459E-03 -0.4286122E-02 -0.9183536E+05 -0.4765879E+05
  0.3800000E+01  0.9091852E+05  0.3466983E+05 -0.3491459E-03 -0.4544743E-02 -0.9183536E+05 -0.4444718E+05
  0.3900000E+01  0.9091852E+05  0.2983853E+05 -0.3491459E-03 -0.4702992E-02 -0.9183536E+05 -0.3990495E+05
  0.4000000E+01  0.9091852E+05  0.2447673E+05 -0.3491459E-03 -0.4739111E-02 -0.9183536E+05 -0.3430216E+05
  0.4100000E+01  0.9091852E+05  0.1881970E+05 -0.3491459E-03 -0.4636781E-02 -0.9183536E+05 -0.2793510E+05
  0.4200000E+01  0.9091852E+05  0.1309223E+05 -0.3491459E-03 -0.4386732E-02 -0.9183536E+05 -0.2111100E+05
  0.4300000E+01  0.9091852E+05  0.7500973E+04 -0.3491459E-03 -0.3987859E-02 -0.9183536E+05 -0.1413324E+05
  0.4400000E+01  0.9091852E+05  0.2227934E+04 -0.3491459E-03 -0.3447719E-02 -0.9183536E+05 -0.7287406E+04
  0.4500000E+01  0.9091852E+05 -0.2574080E+04 -0.3491459E-03 -0.2782404E-02 -0.9183536E+05 -0.8296295E+03
  0.4600000E+01  0.9091852E+05 -0.6784628E+04 -0.3491459E-03 -0.2015743E-02 -0.9183536E+05  0.5023002E+04
  0.4700000E+01  0.9091852E+05 -0.1031710E+05 -0.3491459E-03 -0.1177951E-02 -0.9183536E+05  0.1009911E+05
  0.4800000E+01  0.9091852E+05 -0.1311870E+05 -0.3491459E-03 -0.3037902E-03 -0.9183536E+05  0.1427690E+05
  0.4900000E+01  0.9091852E+05 -0.1516903E+05 -0.3491459E-03  0.5696051E-03 -0.9183536E+05  0.1748513E+05
  0.5000000E+01  0.9091852E+05 -0.1647763E+05 -0.3491459E-03  0.1405056E-02 -0.9183536E+05  0.1970145E+05
  0.5100000E+01  0.9091852E+05 -0.1708035E+05 -0.3491459E-03  0.2167657E-02 -0.9183536E+05  0.2094829E+05
  0.5200000E+01  0.9091852E+05 -0.1703524E+05 -0.3491459E-03  0.2826913E-02 -0.9183536E+05  0.2128703E+05
  0.5300000E+01  0.9091852E+05 -0.1641785E+05 -0.3491459E-03  0.3358519E-02 -0.9183536E+05  0.2081064E+05
  0.5400000E+01  0.9091852E+05 -0.1531644E+05 -0.3491459E-03  0.3745707E-02 -0.9183536E+05  0.1963572E+05
  0.5500000E+01  0.9091852E+05 -0.1382709E+05 -0.3491459E-03  0.3980011E-02 -0.9183536E+05  0.1789409E+05
  0.5600000E+01  0.9091852E+05 -0.1204910E+05 -0.3491459E-03  0.4061480E-02 -0.9183536E+05  0.1572472E+05
  0.5700000E+01  0.9091852E+05 -0.1008075E+05 -0.3491459E-03  0.3998278E-02 -0.9183536E+05  0.1326637E+05
  0.5800000E+01  0.9091852E+05 -0.8015687E+04 -0.3491459E-03  0.3805785E-02 -0.9183536E+05  0.1065120E+05
  0.5900000E+01  0.9091852E+05 -0.5939723E+04 -0.3491459E-03  0.3505242E-02 -0.9183536E+05  0.7999620E+04
  0.6000000E+01  0.9091852E+05 -0.3928463E+04 -0.3491459E-03  0.3122085E-02 -0.9183536E+05  0.5416495E+04
  0.6100000E+01  0.9091852E+05 -0.2045663E+04 -0.3491459E-03  0.2684088E-02 -0.9183536E+05  0.2988810E+04
  0.6200000E+01  0.9091852E+05 -0.3421255E+03 -0.3491459E-03  0.2219478E-02 -0.9183536E+05  0.7845208E+03
  0.6300000E+01  0.9091852E+05  0.1144588E+04 -0.3491459E-03  0.1755126E-02 -0.9183536E+05 -0.1147342E+04
  0.6400000E+01  0.9091852E+05  0.2389928E+04 -0.3491459E-03  0.1314977E-02 -0.9183536E+05 -0.2775651E+04
  0.6500000E+01  0.9091852E+05  0.3381756E+04 -0.3491459E-03  0.9187888E-03 -0.9183536E+05 -0.4085615E+04
  0.6600000E+01  0.9091852E+05  0.4118995E+04 -0.3491459E-03  0.5812456E-03 -0.9183536E+05 -0.5076397E+04
  0.6700000E+01  0.9091852E+05  0.4610323E+04 -0.3491459E-03  0.3114921E-03 -0.9183536E+05 -0.5758807E+04
  0.6800000E+01  0.9091852E+05  0.4872452E+04 -0.3491459E-03  0.1130965E-03 -0.9183536E+05 -0.6152801E+04
  0.6900000E+01  0.9091852E+05  0.4928353E+04 -0.3491459E-03 -0.1563730E-04 -0.9183536E+05 -0.6285114E+04
  0.7000000E+01  0.9091852E+05  0.4805443E+04 -0.3491459E-03 -0.8100220E-04 -0.9183536E+05 -0.6187139E+04
  0.7100000E+01  0.9091852E+05  0.4533896E+04 -0.3491459E-03 -0.9299883E-04 -0.9183536E+05 -0.5893075E+04
  0.7200000E+01  0.9091852E+05  0.4145010E+04 -0.3491459E-03 -0.6426450E-04 -0.9183536E+05 -0.5438448E+04
  0.7300000E+01  0.9091852E+05  0.3669853E+04 -0.3491459E-03 -0.8954349E-05 -0.9183536E+05 -0.4858870E+04
  0.7400000E+01  0.9091852E+05  0.3137945E+04 -0.3491459E-03  0.5836646E-04 -0.9183536E+05 -0.4189056E+04
  0.7500000E+01  0.9091852E+05  0.2576481E+04 -0.3491459E-03  0.1237418E-03 -0.9183536E+05 -0.3462201E+04
  0.7600000E+01  0.9091852E+05  0.2009516E+04 -0.3491459E-03  0.1746876E-03 -0.9183536E+05 -0.2709308E+04
  0.7700000E+01  0.9091852E+05  0.1457560E+04 -0.3491459E-03  0.2008709E-03 -0.9183536E+05 -0.1958764E+04
  0.7800000E+01  0.9091852E+05  0.9373375E+03 -0.3491459E-03  0.1945711E-03 -0.9183536E+05 -0.1235929E+04
  0.7900000E+01  0.9091852E+05  0.4617921E+03 -0.3491459E-03  0.1509549E-03 -0.9183536E+05 -0.5627594E+03
  0.8000000E+01  0.9091852E+05  0.4018687E+02 -0.3491459E-03  0.6812595E-04 -0.9183536E+05  0.4250063E+02
  0.8100000E+01  0.9091852E+05 -0.3215606E+03 -0.3491459E-03 -0.5296264E-04 -0.9183536E+05  0.5656332E+03
  0.8200000E+01  0.9091852E+05 -0.6205693E+03 -0.3491459E-03 -0.2087404E-03 -0.9183536E+05  0.9966349E+03
  0.8300000E+01  0.9091852E+05 -0.8565242E+03 -0.3491459E-03 -0.3933564E-03 -0.9183536E+05  0.1329874E+04
  0.8400001E+01  0.9091852E+05 -0.1031272E+04 -0.3491459E-03 -0.5990535E-03 -0.9183536E+05  0.1564076E+04
  0.8500000E+01  0.9091852E+05 -0.1148299E+04 -0.3491459E-03 -0.8166051E-03 -0.9183536E+05  0.1702085E+04
  0.8600000E+01  0.9091852E+05 -0.1212369E+04 -0.3491459E-03 -0.1035749E-02 -0.9183536E+05  0.1750607E+04
  0.8700000E+01  0.9091852E+05 -0.1229128E+04 -0.3491459E-03 -0.1245609E-02 -0.9183536E+05  0.1719642E+04
  0.8800000E+01  0.9091852E+05 -0.1204781E+04 -0.3491459E-03 -0.1435143E-02 -0.9183536E+05  0.1621817E+04
  0.8900001E+01  0.9091852E+05 -0.1145698E+04 -0.3491459E-03 -0.1593554E-02 -0.9183536E+05  0.1471482E+04
  0.9000000E+01  0.9091852E+05 -0.1058471E+04 -0.3491459E-03 -0.1710694E-02 -0.9183536E+05  0.1284024E+04
  0.9100000E+01  0.9091852E+05 -0.9493636E+03 -0.3491459E-03 -0.1777513E-02 -0.9183536E+05  0.1074629E+04
  0.9200000E+01  0.9091852E+05 -0.8245181E+03 -0.3491459E-03 -0.1786445E-02 -0.9183536E+05  0.8577274E+03
  0.9300000E+01  0.9091852E+05 -0.6896326E+03 -0.3491459E-03 -0.1731830E-02 -0.9183536E+05  0.6459476E+03
  0.9400001E+01  0.9091852E+05 -0.5499976E+03 -0.3491459E-03 -0.1610309E-02 -0.9183536E+05  0.4496586E+03
  0.9500000E+01  0.9091852E+05 -0.4104035E+03 -0.3491459E-03 -0.1421162E-02 -0.9183536E+05  0.2764877E+03
  0.9600000E+01  0.9091852E+05 -0.2751493E+03 -0.3491459E-03 -0.1166608E-02 -0.9183536E+05  0.1311433E+03
  0.9700000E+01  0.9091852E+05 -0.1479133E+03 -0.3491459E-03 -0.8519919E-03 -0.9183536E+05  0.1546589E+02
  0.9800000E+01  0.9091852E+05 -0.3182311E+02 -0.3491459E-03 -0.4858464E-03 -0.9183536E+05 -0.7130417E+02
  0.9900001E+01  0.9091852E+05  0.7069672E+02 -0.3491459E-03 -0.7979919E-04 -0.9183536E+05 -0.1321409E+03
  0.1000000E+02  0.9091852E+05  0.1577617E+03 -0.3491459E-03  0.3516955E-03 -0.9183536E+05 -0.1714889E+03
  0.1010000E+02  0.9091852E+05  0.2282494E+03 -0.3491459E-03  0.7918450E-03 -0.9183536E+05 -0.1947660E+03
  0.1020000E+02  0.9091852E+05  0.2815683E+03 -0.3491459E-03  0.1222141E-02 -0.9183536E+05 -0.2074928E+03
  0.1030000E+02  0.9091852E+05  0.3178805E+03 -0.3491459E-03  0.1623226E-02 -0.9183536E+05 -0.2148857E+03
  0.1040000E+02  0.9091852E+05  0.3378660E+03 -0.3491459E-03  0.1975839E-02 -0.9183536E+05 -0.2211472E+03
  0.1050000E+02  0.9091852E+05  0.3427673E+03 -0.3491459E-03  0.2261870E-02 -0.9183536E+05 -0.2291533E+03
  0.1060000E+02  0.9091852E+05  0.3342507E+03 -0.3491459E-03  0.2465464E-02 -0.9183536E+05 -0.2402722E+03
  0.1070000E+02  0.9091852E+05  0.3144177E+03 -0.3491459E-03  0.2574020E-02 -0.9183536E+05 -0.2544300E+03
  0.1080000E+02  0.9091852E+05  0.2854829E+03 -0.3491459E-03  0.2579123E-02 -0.9183536E+05 -0.2700663E+03
  0.1090000E+02  0.9091852E+05  0.2499109E+03 -0.3491459E-03  0.2477229E-02 -0.9183536E+05 -0.2847121E+03
  0.1100000E+02  0.9091852E+05  0.2101435E+03 -0.3491459E-03  0.2270118E-02 -0.9183536E+05 -0.2952944E+03
  0.1110000E+02  0.9091852E+05  0.1684434E+03 -0.3491459E-03  0.1965032E-02 -0.9183536E+05 -0.2985472E+03
  0.1120000E+02  0.9091852E+05  0.1268824E+03 -0.3491459E-03  0.1574451E-02 -0.9183536E+05 -0.2916122E+03
  0.1130000E+02  0.9091852E+05  0.8731086E+02 -0.3491459E-03  0.1115538E-02 -0.9183536E+05 -0.2724965E+03
  0.1140000E+02  0.9091852E+05  0.5111050E+02 -0.3491459E-03  0.6092699E-03 -0.9183536E+05 -0.2402357E+03
  0.1150000E+02  0.9091852E+05  0.1933141E+02 -0.3491459E-03  0.7928618E-04 -0.9183536E+05 -0.1952464E+03
  0.1160000E+02  0.9091852E+05 -0.7415987E+01 -0.3491459E-03 -0.4495085E-03 -0.9183536E+05 -0.1392786E+03
  0.1170000E+02  0.9091852E+05 -0.2889052E+02 -0.3491459E-03 -0.9523695E-03 -0.9183536E+05 -0.7533054E+02
  0.1180000E+02  0.9091852E+05 -0.4517228E+02 -0.3491459E-03 -0.1406273E-02 -0.9183536E+05 -0.7417490E+01
  0.1190000E+02  0.9091852E+05 -0.5666508E+02 -0.3491459E-03 -0.1791257E-02 -0.9183536E+05  0.5987730E+02
  0.1200000E+02  0.9091852E+05 -0.6394731E+02 -0.3491459E-03 -0.2091689E-02 -0.9183536E+05  0.1217597E+03
  0.1210000E+02  0.9091852E+05 -0.6769342E+02 -0.3491459E-03 -0.2297189E-02 -0.9183536E+05  0.1737145E+03
  0.1220000E+02  0.9091852E+05 -0.6870227E+02 -0.3491459E-03 -0.2403195E-02 -0.9183536E+05  0.2120377E+03
  0.1230000E+02  0.9091852E+05 -0.6767858E+02 -0.3491459E-03 -0.2411186E-02 -0.9183536E+05  0.2340594E+03
  0.1240000E+02  0.9091852E+05 -0.6527479E+02 -0.3491459E-03 -0.2328413E-02 -0.9183536E+05  0.2385261E+03
  0.1250000E+02  0.9091852E+05 -0.6195011E+02 -0.3491459E-03 -0.2167309E-02 -0.9183536E+05  0.2256334E+03
  0.1260000E+02  0.9091852E+05 -0.5820121E+02 -0.3491459E-03 -0.1944466E-02 -0.9183536E+05  0.1971932E+03
  0.1270000E+02  0.9091852E+05 -0.5411594E+02 -0.3491459E-03 -0.1679396E-02 -0.9183536E+05  0.1561233E+03
  0.1280000E+02  0.9091852E+05 -0.4984213E+02 -0.3491459E-03 -0.1393039E-02 -0.9183536E+05  0.1065307E+03
  0.1290000E+02  0.9091852E+05 -0.4529547E+02 -0.3491459E-03 -0.1106249E-02 -0.9183536E+05  0.5303335E+02
  0.1300000E+02  0.9091852E+05 -0.4045873E+02 -0.3491459E-03 -0.8382400E-03 -0.9183536E+05  0.5760041E+00
  0.1310000E+02  0.9091852E+05 -0.3512523E+02 -0.3491459E-03 -0.6052398E-03 -0.9183536E+05 -0.4633820E+02
  0.1320000E+02  0.9091852E+05 -0.2922790E+02 -0.3491459E-03 -0.4193577E-03 -0.9183536E+05 -0.8379855E+02
  0.1330000E+02  0.9091852E+05 -0.2269674E+02 -0.3491459E-03 -0.2877634E-03 -0.9183536E+05 -0.1089815E+03
  0.1340000E+02  0.9091852E+05 -0.1555726E+02 -0.3491459E-03 -0.2122982E-03 -0.9183536E+05 -0.1203542E+03
  0.1350000E+02  0.9091852E+05 -0.7938678E+01 -0.3491459E-03 -0.1894430E-03 -0.9183536E+05 -0.1177653E+03
  0.1360000E+02  0.9091852E+05 -0.4975595E-01 -0.3491459E-03 -0.2107464E-03 -0.9183536E+05 -0.1024532E+03
  0.1370000E+02  0.9091852E+05  0.7840882E+01 -0.3491459E-03 -0.2635969E-03 -0.9183536E+05 -0.7688757E+02
  0.1380000E+02  0.9091852E+05  0.1530471E+02 -0.3491459E-03 -0.3323151E-03 -0.9183536E+05 -0.4435414E+02
  0.1390000E+02  0.9091852E+05  0.2198946E+02 -0.3491459E-03 -0.3994933E-03 -0.9183536E+05 -0.8815788E+01
  0.1400000E+02  0.9091852E+05  0.2748725E+02 -0.3491459E-03 -0.4474480E-03 -0.9183536E+05  0.2570548E+02
  0.1410000E+02  0.9091852E+05  0.3152125E+02 -0.3491459E-03 -0.4596916E-03 -0.9183536E+05  0.5536674E+02
  0.1420000E+02  0.9091852E+05  0.3380983E+02 -0.3491459E-03 -0.4223183E-03 -0.9183536E+05  0.7704109E+02
  0.1430000E+02  0.9091852E+05  0.3422032E+02 -0.3491459E-03 -0.3251934E-03 -0.9183536E+05  0.8853433E+02
  0.1440000E+02  0.9091852E+05  0.3275189E+02 -0.3491459E-03 -0.1628702E-03 -0.9183536E+05  0.8878783E+02
  0.1450000E+02  0.9091852E+05  0.2956053E+02 -0.3491459E-03  0.6485546E-04 -0.9183536E+05  0.7795904E+02
  0.1460000E+02  0.9091852E+05  0.2482217E+02 -0.3491459E-03  0.3527481E-03 -0.9183536E+05  0.5747140E+02
  0.1470000E+02  0.9091852E+05  0.1905440E+02 -0.3491459E-03  0.6903701E-03 -0.9183536E+05  0.2958108E+02
  0.1480000E+02  0.9091852E+05  0.1257708E+02 -0.3491459E-03  0.1062653E-02 -0.9183536E+05 -0.2534958E+01
  0.1490000E+02  0.9091852E+05  0.5959428E+01 -0.3491459E-03  0.1450849E-02 -0.9183536E+05 -0.3538535E+02
  0.1500000E+02  0.9091852E+05 -0.3720662E+00 -0.3491459E-03  0.1833706E-02 -0.9183536E+05 -0.6538585E+02
  0.1510000E+02  0.9091852E+05 -0.5909056E+01 -0.3491459E-03  0.2188869E-02 -0.9183536E+05 -0.8938364E+02
  0.1520000E+02  0.9091852E+05 -0.1035843E+02 -0.3491459E-03  0.2494338E-02 -0.9183536E+05 -0.1047452E+03
  0.1530000E+02  0.9091852E+05 -0.1341998E+02 -0.3491459E-03  0.2729925E-02 -0.9183536E+05 -0.1098877E+03
  0.1540000E+02  0.9091852E+05 -0.1506171E+02 -0.3491459E-03  0.2878595E-02 -0.9183536E+05 -0.1041410E+03
  0.1550000E+02  0.9091852E+05 -0.1519146E+02 -0.3491459E-03  0.2927605E-02 -0.9183536E+05 -0.8817175E+02
  0.1560000E+02  0.9091852E+05 -0.1394679E+02 -0.3491459E-03  0.2869411E-02 -0.9183536E+05 -0.6352488E+02
  0.1570000E+02  0.9091852E+05 -0.1170784E+02 -0.3491459E-03  0.2702177E-02 -0.9183536E+05 -0.3258280E+02
  0.1580000E+02  0.9091852E+05 -0.8695929E+01 -0.3491459E-03  0.2429975E-02 -0.9183536E+05  0.1507125E+01
  0.1590000E+02  0.9091852E+05 -0.5343088E+01 -0.3491459E-03  0.2062632E-02 -0.9183536E+05  0.3544398E+02
Zone t="DoF    2",I=   160,F=POINT
  0.0000000E+00  0.4418628E-02 -0.8971266E-02  0.9899866E+05  0.1355758E+06 -0.9411052E-03 -0.2637826E-02
  0.1000000E+00  0.4418628E-02 -0.8764429E-02  0.9899866E+05  0.1335744E+06 -0.9411052E-03 -0.2482001E-02
  0.2000000E+00  0.4418628E-02 -0.8155432E-02  0.9899866E+05  0.1276404E+06 -0.9411052E-03 -0.2028997E-02
  0.3000000E+00  0.4418628E-02 -0.7178073E-02  0.9899866E+05  0.1179817E+06 -0.9411052E-03 -0.1320960E-02
  0.4000000E+00  0.4418628E-02 -0.5886337E-02  0.9899866E+05  0.1049353E+06 -0.9411052E-03 -0.4239735E-03
  0.5000000E+00  0.4418628E-02 -0.4351016E-02  0.9899866E+05  0.8895371E+05 -0.9411052E-03  0.5777763E-03
  0.6000000E+00  0.4418628E-02 -0.2655309E-02  0.9899866E+05  0.7058721E+05 -0.9411052E-03  0.1589454E-02
  0.7000000E+00  0.4418628E-02 -0.8897103E-03  0.9899866E+05  0.5046155E+05 -0.9411052E-03  0.2513962E-02
  0.8000000E+00  0.4418628E-02  0.8535180E-03  0.9899866E+05  0.2925350E+05 -0.9411052E-03  0.3260554E-02
  0.9000000E+00  0.4418628E-02  0.2485868E-02  0.9899866E+05  0.7664559E+04 -0.9411052E-03  0.3752885E-02
  0.1000000E+01  0.4418628E-02  0.3927789E-02  0.9899866E+05 -0.1360591E+05 -0.9411052E-03  0.3935830E-02
  0.1100000E+01  0.4418628E-02  0.5113206E-02  0.9899866E+05 -0.3388684E+05 -0.9411052E-03  0.3780443E-02
  0.1200000E+01  0.4418628E-02  0.5993086E-02  0.9899866E+05 -0.5255984E+05 -0.9411052E-03  0.3286653E-02
  0.1300000E+01  0.4418628E-02  0.6537825E-02  0.9899866E+05 -0.6908090E+05 -0.9411052E-03  0.2483454E-02
  0.1400000E+01  0.4418628E-02  0.6738350E-02  0.9899866E+05 -0.8299845E+05 -0.9411052E-03  0.1426592E-02
  0.1500000E+01  0.4418628E-02  0.6605864E-02  0.9899866E+05 -0.9396724E+05 -0.9411052E-03  0.1939367E-03
  0.1600000E+01  0.4418628E-02  0.6170309E-02  0.9899866E+05 -0.1017572E+06 -0.9411052E-03 -0.1121015E-02
  0.1700000E+01  0.4418628E-02  0.5477689E-02  0.9899866E+05 -0.1062577E+06 -0.9411052E-03 -0.2416963E-02
  0.1800000E+01  0.4418628E-02  0.4586449E-02  0.9899866E+05 -0.1074768E+06 -0.9411052E-03 -0.3593258E-02
  0.1900000E+01  0.4418628E-02  0.3563192E-02  0.9899866E+05 -0.1055354E+06 -0.9411052E-03 -0.4558258E-02
  0.2000000E+01  0.4418628E-02  0.2478047E-02  0.9899866E+05 -0.1006573E+06 -0.9411052E-03 -0.5236857E-02
  0.2100000E+01  0.4418628E-02  0.1400007E-02  0.9899866E+05 -0.9315637E+05 -0.9411052E-03 -0.5576563E-02
  0.2200000E+01  0.4418628E-02  0.3925569E-03  0.9899866E+05 -0.8341934E+05 -0.9411052E-03 -0.5551618E-02
  0.2300000E+01  0.4418628E-02 -0.4901565E-03  0.9899866E+05 -0.7188748E+05 -0.9411052E-03 -0.5164819E-02
  0.2400000E+01  0.4418628E-02 -0.1206308E-02  0.9899866E+05 -0.5903700E+05 -0.9411052E-03 -0.4446923E-02
  0.2500000E+01  0.4418628E-02 -0.1728426E-02  0.9899866E+05 -0.4535914E+05 -0.9411052E-03 -0.3453732E-02
  0.2600000E+01  0.4418628E-02 -0.2044351E-02  0.9899866E+05 -0.3134062E+05 -0.9411052E-03 -0.2261123E-02
  0.2700000E+01  0.4418628E-02 -0.2157097E-02  0.9899866E+05 -0.1744596E+05 -0.9411052E-03 -0.9585103E-03
  0.2800000E+01  0.4418628E-02 -0.2083680E-02  0.9899866E+05 -0.4101523E+04 -0.9411052E-03  0.3586967E-03
  0.2900000E+01  0.4418628E-02 -0.1853050E-02  0.9899866E+05  0.8317689E+04 -0.9411052E-03  0.1596961E-02
  0.3000000E+01  0.4418628E-02 -0.1503290E-02  0.9899866E+05  0.1949793E+05 -0.9411052E-03  0.2672098E-02
  0.3100000E+01  0.4418628E-02 -0.1078347E-02  0.9899866E+05  0.2919387E+05 -0.9411052E-03  0.3515826E-02
  0.3200000E+01  0.4418628E-02 -0.6245073E-03  0.9899866E+05  0.3723189E+05 -0.9411052E-03  0.4080724E-02
  0.3300000E+01  0.4418628E-02 -0.1868955E-03  0.9899866E+05  0.4351061E+05 -0.9411052E-03  0.4343319E-02
  0.3400000E+01  0.4418628E-02  0.1937432E-03  0.9899866E+05  0.4799812E+05 -0.9411052E-03  0.4305019E-02
  0.3500000E+01  0.4418628E-02  0.4838042E-03  0.9899866E+05  0.5072680E+05 -0.9411052E-03  0.3990909E-02
  0.3600000E+01  0.4418628E-02  0.6589133E-03  0.9899866E+05  0.5178593E+05 -0.9411052E-03  0.3446566E-02
  0.3700000E+01  0.4418628E-02  0.7052654E-03  0.9899866E+05  0.5131271E+05 -0.9411052E-03  0.2733238E-02
  0.3800000E+01  0.4418628E-02  0.6201291E-03  0.9899866E+05  0.4948204E+05 -0.9411052E-03  0.1921856E-02
  0.3900000E+01  0.4418628E-02  0.4115365E-03  0.9899866E+05  0.4649613E+05 -0.9411052E-03  0.1086461E-02
  0.4000000E+01  0.4418628E-02  0.9722385E-04  0.9899866E+05  0.4257363E+05 -0.9411052E-03  0.2976405E-03
  0.4100000E+01  0.4418628E-02 -0.2970865E-03  0.9899866E+05  0.3793974E+05 -0.9411052E-03 -0.3834513E-03
  0.4200000E+01  0.4418628E-02 -0.7398814E-03  0.9899866E+05  0.3281681E+05 -0.9411052E-03 -0.9099552E-03
  0.4300000E+01  0.4418628E-02 -0.1196355E-02  0.9899866E+05  0.2741645E+05 -0.9411052E-03 -0.1252661E-02
  0.4400000E+01  0.4418628E-02 -0.1631059E-02  0.9899866E+05  0.2193270E+05 -0.9411052E-03 -0.1401624E-02
  0.4500000E+01  0.4418628E-02 -0.2010457E-02  0.9899866E+05  0.1653726E+05 -0.9411052E-03 -0.1365929E-02
  0.4600000E+01  0.4418628E-02 -0.2305223E-02  0.9899866E+05  0.1137579E+05 -0.9411052E-03 -0.1171722E-02
  0.4700000E+01  0.4418628E-02 -0.2492197E-02  0.9899866E+05  0.6566246E+04 -0.9411052E-03 -0.8587230E-03
  0.4800000E+01  0.4418628E-02 -0.2555771E-02  0.9899866E+05  0.2198323E+04 -0.9411052E-03 -0.4756626E-03
  0.4900000E+01  0.4418628E-02 -0.2488760E-02  0.9899866E+05 -0.1665690E+04 -0.9411052E-03 -0.7501461E-04
  0.5000000E+01  0.4418628E-02 -0.2292617E-02  0.9899866E+05 -0.4989116E+04 -0.9411052E-03  0.2923601E-03
  0.5100000E+01  0.4418628E-02 -0.1977097E-02  0.9899866E+05 -0.7758067E+04 -0.9411052E-03  0.5822190E-03
  0.5200000E+01  0.4418628E-02 -0.1559359E-02  0.9899866E+05 -0.9978368E+04 -0.9411052E-03  0.7610817E-03
  0.5300000E+01  0.4418628E-02 -0.1062651E-02  0.9899866E+05 -0.1167185E+05 -0.9411052E-03  0.8091851E-03
  0.5400000E+01  0.4418628E-02 -0.5146156E-03  0.9899866E+05 -0.1287298E+05 -0.9411052E-03  0.7219765E-03
  0.5500000E+01  0.4418628E-02  0.5456137E-04  0.9899866E+05 -0.1362506E+05 -0.9411052E-03  0.5100539E-03
  0.5600000E+01  0.4418628E-02  0.6141257E-03  0.9899866E+05 -0.1397716E+05 -0.9411052E-03  0.1976186E-03
  0.5700000E+01  0.4418628E-02  0.1134643E-02  0.9899866E+05 -0.1398121E+05 -0.9411052E-03 -0.1803844E-03
  0.5800000E+01  0.4418628E-02  0.1589720E-02  0.9899866E+05 -0.1368954E+05 -0.9411052E-03 -0.5821001E-03
  0.5900000E+01  0.4418628E-02  0.1957490E-02  0.9899866E+05 -0.1315311E+05 -0.9411052E-03 -0.9632066E-03
  0.6000000E+01  0.4418628E-02  0.2221701E-02  0.9899866E+05 -0.1241987E+05 -0.9411052E-03 -0.1281493E-02
  0.6100000E+01  0.4418628E-02  0.2372452E-02  0.9899866E+05 -0.1153403E+05 -0.9411052E-03 -0.1501115E-02
  0.6200000E+01  0.4418628E-02  0.2406507E-02  0.9899866E+05 -0.1053534E+05 -0.9411052E-03 -0.1596164E-02
  0.6300000E+01  0.4418628E-02  0.2327187E-02  0.9899866E+05 -0.9459036E+04 -0.9411052E-03 -0.1553141E-02
  0.6400000E+01  0.4418628E-02  0.2143911E-02  0.9899866E+05 -0.8335881E+04 -0.9411052E-03 -0.1372218E-02
  0.6500000E+01  0.4418628E-02  0.1871389E-02  0.9899866E+05 -0.7192258E+04 -0.9411052E-03 -0.1067080E-02
  0.6600000E+01  0.4418628E-02  0.1528571E-02  0.9899866E+05 -0.6050844E+04 -0.9411052E-03 -0.6634773E-03
  0.6700000E+01  0.4418628E-02  0.1137394E-02  0.9899866E+05 -0.4930790E+04 -0.9411052E-03 -0.1965961E-03
  0.6800000E+01  0.4418628E-02  0.7214437E-03  0.9899866E+05 -0.3848281E+04 -0.9411052E-03  0.2924222E-03
  0.6900000E+01  0.4418628E-02  0.3045735E-03  0.9899866E+05 -0.2816898E+04 -0.9411052E-03  0.7605322E-03
  0.7000000E+01  0.4418628E-02 -0.9040975E-04  0.9899866E+05 -0.1847941E+04 -0.9411052E-03  0.1166927E-02
  0.7100000E+01  0.4418628E-02 -0.4429619E-03  0.9899866E+05 -0.9507256E+03 -0.9411052E-03  0.1476908E-02
  0.7200000E+01  0.4418628E-02 -0.7358131E-03  0.9899866E+05 -0.1326828E+03 -0.9411052E-03  0.1665114E-02
  0.7300000E+01  0.4418628E-02 -0.9557878E-03  0.9899866E+05  0.6004550E+03 -0.9411052E-03  0.1717780E-02
  0.7400000E+01  0.4418628E-02 -0.1094355E-02  0.9899866E+05  0.1244554E+04 -0.9411052E-03  0.1633854E-02
  0.7500000E+01  0.4418628E-02 -0.1147926E-02  0.9899866E+05  0.1797157E+04 -0.9411052E-03  0.1424871E-02
  0.7600000E+01  0.4418628E-02 -0.1117874E-02  0.9899866E+05  0.2257356E+04 -0.9411052E-03  0.1113600E-02
  0.7700000E+01  0.4418628E-02 -0.1010285E-02  0.9899866E+05  0.2625824E+04 -0.9411052E-03  0.7316266E-03
  0.7800000E+01  0.4418628E-02 -0.8354923E-03  0.9899866E+05  0.2904687E+04 -0.9411052E-03  0.3161608E-03
  0.7900000E+01  0.4418628E-02 -0.6073752E-03  0.9899866E+05  0.3097503E+04 -0.9411052E-03 -0.9369932E-04
  0.8000000E+01  0.4418628E-02 -0.3424998E-03  0.9899866E+05  0.3209120E+04 -0.9411052E-03 -0.4607640E-03
  0.8100000E+01  0.4418628E-02 -0.5914527E-04  0.9899866E+05  0.3245555E+04 -0.9411052E-03 -0.7533460E-03
  0.8200000E+01  0.4418628E-02  0.2237681E-03  0.9899866E+05  0.3213720E+04 -0.9411052E-03 -0.9482111E-03
  0.8300000E+01  0.4418628E-02  0.4877454E-03  0.9899866E+05  0.3121310E+04 -0.9411052E-03 -0.1032691E-02
  0.8400001E+01  0.4418628E-02  0.7157653E-03  0.9899866E+05  0.2976458E+04 -0.9411052E-03 -0.1005702E-02
  0.8500000E+01  0.4418628E-02  0.8932280E-03  0.9899866E+05  0.2787653E+04 -0.9411052E-03 -0.8776293E-03
  0.8600000E+01  0.4418628E-02  0.1008792E-02  0.9899866E+05  0.2563402E+04 -0.9411052E-03 -0.6690748E-03
  0.8700000E+01  0.4418628E-02  0.1054988E-02  0.9899866E+05  0.2312058E+04 -0.9411052E-03 -0.4086255E-03
  0.8800000E+01  0.4418628E-02  0.1028653E-02  0.9899866E+05  0.2041600E+04 -0.9411052E-03 -0.1298543E-03
  0.8900001E+01  0.4418628E-02  0.9310907E-03  0.9899866E+05  0.1759680E+04 -0.9411052E-03  0.1321143E-03
  0.9000000E+01  0.4418628E-02  0.7680183E-03  0.9899866E+05  0.1473090E+04 -0.9411052E-03  0.3441936E-03
  0.9100000E+01  0.4418628E-02  0.5491923E-03  0.9899866E+05  0.1188208E+04 -0.9411052E-03  0.4786569E-03
  0.9200000E+01  0.4418628E-02  0.2878676E-03  0.9899866E+05  0.9104879E+03 -0.9411052E-03  0.5159021E-03
  0.9300000E+01  0.4418628E-02 -0.2887600E-07  0.9899866E+05  0.6447284E+03 -0.9411052E-03  0.4464547E-03
  0.9400001E+01  0.4418628E-02 -0.2968412E-03  0.9899866E+05  0.3949386E+03 -0.9411052E-03  0.2719046E-03
  0.9500000E+01  0.4418628E-02 -0.5842723E-03  0.9899866E+05  0.1643777E+03 -0.9411052E-03  0.4808225E-05
  0.9600000E+01  0.4418628E-02 -0.8445242E-03  0.9899866E+05 -0.4443462E+02 -0.9411052E-03 -0.3325182E-03
  0.9700000E+01  0.4418628E-02 -0.1061423E-02  0.9899866E+05 -0.2296160E+03 -0.9411052E-03 -0.7100732E-03
  0.9800000E+01  0.4418628E-02 -0.1221449E-02  0.9899866E+05 -0.3899908E+03 -0.9411052E-03 -0.1093064E-02
  0.9900001E+01  0.4418628E-02 -0.1314631E-02  0.9899866E+05 -0.5248508E+03 -0.9411052E-03 -0.1445160E-02
  0.1000000E+02  0.4418628E-02 -0.1335205E-02  0.9899866E+05 -0.6342260E+03 -0.9411052E-03 -0.1731955E-02
  0.1010000E+02  0.4418628E-02 -0.1282034E-02  0.9899866E+05 -0.7184658E+03 -0.9411052E-03 -0.1924198E-02
  0.1020000E+02  0.4418628E-02 -0.1158727E-02  0.9899866E+05 -0.7785685E+03 -0.9411052E-03 -0.2000510E-02
  0.1030000E+02  0.4418628E-02 -0.9734268E-03  0.9899866E+05 -0.8157752E+03 -0.9411052E-03 -0.1949392E-02
  0.1040000E+02  0.4418628E-02 -0.7383139E-03  0.9899866E+05 -0.8317834E+03 -0.9411052E-03 -0.1770263E-02
  0.1050000E+02  0.4418628E-02 -0.4688632E-03  0.9899866E+05 -0.8285406E+03 -0.9411052E-03 -0.1473507E-02
  0.1060000E+02  0.4418628E-02 -0.1827789E-03  0.9899866E+05 -0.8082749E+03 -0.9411052E-03 -0.1079482E-02
  0.1070000E+02  0.4418628E-02  0.1011321E-03  0.9899866E+05 -0.7732756E+03 -0.9411052E-03 -0.6166602E-03
  0.1080000E+02  0.4418628E-02  0.3642424E-03  0.9899866E+05 -0.7261028E+03 -0.9411052E-03 -0.1189993E-03
  0.1090000E+02  0.4418628E-02  0.5893546E-03  0.9899866E+05 -0.6691638E+03 -0.9411052E-03  0.3770920E-03
  0.1100000E+02  0.4418628E-02  0.7618958E-03  0.9899866E+05 -0.6048677E+03 -0.9411052E-03  0.8360101E-03
  0.1110000E+02  0.4418628E-02  0.8709314E-03  0.9899866E+05 -0.5356014E+03 -0.9411052E-03  0.1226065E-02
  0.1120000E+02  0.4418628E-02  0.9099262E-03  0.9899866E+05 -0.4635420E+03 -0.9411052E-03  0.1522145E-02
  0.1130000E+02  0.4418628E-02  0.8771935E-03  0.9899866E+05 -0.3905417E+03 -0.9411052E-03  0.1707813E-02
  0.1140000E+02  0.4418628E-02  0.7760561E-03  0.9899866E+05 -0.3183766E+03 -0.9411052E-03  0.1776427E-02
  0.1150000E+02  0.4418628E-02  0.6145956E-03  0.9899866E+05 -0.2484369E+03 -0.9411052E-03  0.1731488E-02
  0.1160000E+02  0.4418628E-02  0.4050881E-03  0.9899866E+05 -0.1818987E+03 -0.9411052E-03  0.1585936E-02
  0.1170000E+02  0.4418628E-02  0.1631246E-03  0.9899866E+05 -0.1196642E+03 -0.9411052E-03  0.1360695E-02