VARIABLES="X" "Y" "Z" "NX" "NY" "NZ" "A"
 ZONE N=        5684 , E=        1421  , F=FEPOINT,ET=QUADRILATERAL
   0.7467940E-01   0.4794600E-02  -0.9000000E-02   0.0000000E+00   0.0000000E+00   0.0000000E+00   0.0000000E+00
   0.5583480E-01   0.3584700E-02   0.0000000E+00   0.0000000E+00   0.0000000E+00   0.0000000E+00   0.0000000E+00
   0.7483310E-01   0.0000000E+00  -0.9000000E-02   0.0000000E+00   0.0000000E+00   0.0000000E+00   0.0000000E+00
   0.5594980E-01   0.0000000E+00   0.0000000E+00   0.0000000E+00   0.0000000E+00   0.0000000E+00   0.0000000E+00
   0.7421880E-01   0.9569500E-02  -0.9000000E-02   0.0000000E+00   0.0000000E+00   0.0000000E+00   0.0000000E+00
   0.5549050E-01   0.7154700E-02   0.0000000E+00   0.0000000E+00   0.0000000E+00   0.0000000E+00   0.0000000E+00
   0.7467940E-01   0.4794600E-02  -0.9000000E-02   0.0000000E+00   0.0000000E+00   0.0000000E+00   0.0000000E+00
   0.5583480E-01   0.3584700E-02   0.0000000E+00   0.0000000E+00   0.0000000E+00   0.0000000E+00   0.0000000E+00
   0.7345320E-01   0.1430500E-01  -0.9000000E-02   0.0000000E+00   0.0000000E+00   0.0000000E+00   0.0000000E+00
   0.5491800E-01   0.1069530E-01   0.0000000E+00   0.0000000E+00   0.0000000E+00   0.0000000E+00   0.0000000E+00
   0.7421880E-01   0.9569500E-02  -0.9000000E-02   0.0000000E+00   0.0000000E+00   0.0000000E+00   0.0000000E+00
   0.5549050E-01   0.7154700E-02   0.0000000E+00   0.0000000E+00   0.0000000E+00   0.0000000E+00   0.0000000E+00
   0.7238570E-01   0.1898180E-01  -0.9000000E-02   0.0000000E+00   0.0000000E+00   0.0000000E+00   0.0000000E+00
   0.5412000E-01   0.1419190E-01   0.0000000E+00   0.0000000E+00   0.0000000E+00   0.0000000E+00   0.0000000E+00
   0.7345320E-01   0.1430500E-01  -0.9000000E-02   0.0000000E+00   0.0000000E+00   0.0000000E+00   0.0000000E+00
   0.5491800E-01   0.1069530E-01   0.0000000E+00   0.0000000E+00   0.0000000E+00   0.0000000E+00   0.0000000E+00
   0.7102080E-01   0.2358050E-01  -0.9000000E-02   0.0000000E+00   0.0000000E+00   0.0000000E+00   0.0000000E+00
   0.5309950E-01   0.1763020E-01   0.0000000E+00   0.0000000E+00   0.0000000E+00   0.0000000E+00   0.0000000E+00
   0.7238570E-01   0.1898180E-01  -0.9000000E-02   0.0000000E+00   0.0000000E+00   0.0000000E+00   0.0000000E+00
   0.5412000E-01   0.1419190E-01   0.0000000E+00   0.0000000E+00   0.0000000E+00   0.0000000E+00   0.0000000E+00
   0.6936410E-01   0.2808240E-01  -0.9000000E-02   0.0000000E+00   0.0000000E+00   0.0000000E+00   0.0000000E+00
   0.5186080E-01   0.2099610E-01   0.0000000E+00   0.0000000E+00   0.0000000E+00   0.0000000E+00   0.0000000E+00
   0.7102080E-01   0.2358050E-01  -0.9000000E-02   0.0000000E+00   0.0000000E+00   0.0000000E+00   0.0000000E+00
   0.5309950E-01   0.1763020E-01   0.0000000E+00   0.0000000E+00   0.0000000E+00   0.0000000E+00   0.0000000E+00
   0.6742230E-01   0.3246890E-01  -0.9000000E-02   0.0000000E+00   0.0000000E+00   0.0000000E+00   0.0000000E+00
   0.5040900E-01   0.2427570E-01   0.0000000E+00   0.0000000E+00   0.0000000E+00   0.0000000E+00   0.0000000E+00
   0.6936410E-01   0.2808240E-01  -0.9000000E-02   0.0000000E+00   0.0000000E+00   0.0000000E+00   0.0000000E+00
   0.5186080E-01   0.2099610E-01   0.0000000E+00   0.0000000E+00   0.0000000E+00   0.0000000E+00   0.0000000E+00
   0.6520350E-01   0.3672190E-01  -0.9000000E-02   0.0000000E+00   0.0000000E+00   0.0000000E+00   0.0000000E+00
   0.4875010E-01   0.2745550E-01   0.0000000E+00   0.0000000E+00   0.0000000E+00   0.0000000E+00   0.0000000E+00
   0.6742230E-01   0.3246890E-01  -0.9000000E-02   0.0000000E+00   0.0000000E+00   0.0000000E+00   0.0000000E+00
   0.5040900E-01   0.2427570E-01   0.0000000E+00   0.0000000E+00   0.0000000E+00   0.0000000E+00   0.0000000E+00
   0.6271680E-01   0.4082410E-01  -0.9000000E-02   0.0000000E+00   0.0000000E+00   0.0000000E+00   0.0000000E+00
   0.4689090E-01   0.3052260E-01   0.0000000E+00   0.0000000E+00   0.0000000E+00   0.0000000E+00   0.0000000E+00
   0.6520350E-01   0.3672190E-01  -0.9000000E-02   0.0000000E+00   0.0000000E+00   0.0000000E+00   0.0000000E+00
   0.4875010E-01   0.2745550E-01   0.0000000E+00   0.0000000E+00   0.0000000E+00   0.0000000E+00   0.0000000E+00
   0.5997230E-01   0.4475850E-01  -0.9000000E-02   0.0000000E+00   0.0000000E+00   0.0000000E+00   0.0000000E+00
   0.4483890E-01   0.3346420E-01   0.0000000E+00   0.0000000E+00   0.0000000E+00   0.0000000E+00   0.0000000E+00
   0.6271680E-01   0.4082410E-01  -0.9000000E-02   0.0000000E+00   0.0000000E+00   0.0000000E+00   0.0000000E+00
   0.4689090E-01   0.3052260E-01   0.0000000E+00   0.0000000E+00   0.0000000E+00   0.0000000E+00   0.0000000E+00
   0.5698140E-01   0.4850900E-01  -0.9000000E-02   0.0000000E+00   0.0000000E+00   0.0000000E+00   0.0000000E+00
   0.4260270E-01   0.3626830E-01   0.0000000E+00   0.0000000E+00   0.0000000E+00   0.0000000E+00   0.0000000E+00
   0.5997230E-01   0.4475850E-01  -0.9000000E-02   0.0000000E+00   0.0000000E+00   0.0000000E+00   0.0000000E+00
   0.4483890E-01   0.3346420E-01   0.0000000E+00   0.0000000E+00   0.0000000E+00   0.0000000E+00   0.0000000E+00
   0.5375630E-01   0.5206010E-01  -0.9000000E-02   0.0000000E+00   0.0000000E+00   0.0000000E+00   0.0000000E+00
   0.4019150E-01   0.3892330E-01   0.0000000E+00   0.0000000E+00   0.0000000E+00   0.0000000E+00   0.0000000E+00
   0.5698140E-01   0.4850900E-01  -0.9000000E-02   0.0000000E+00   0.0000000E+00   0.0000000E+00   0.0000000E+00
   0.4260270E-01   0.3626830E-01   0.0000000E+00   0.0000000E+00   0.0000000E+00   0.0000000E+00   0.0000000E+00
   0.5031040E-01   0.5539730E-01  -0.9000000E-02   0.0000000E+00   0.0000000E+00   0.0000000E+00   0.0000000E+00
   0.3761510E-01   0.4141840E-01   0.0000000E+00   0.0000000E+00   0.0000000E+00   0.0000000E+00   0.0000000E+00
   0.5375630E-01   0.5206010E-01  -0.9000000E-02   0.0000000E+00   0.0000000E+00   0.0000000E+00   0.0000000E+00
   0.4019150E-01   0.3892330E-01   0.0000000E+00   0.0000000E+00   0.0000000E+00   0.0000000E+00   0.0000000E+00
   0.4665770E-01   0.5850690E-01  -0.9000000E-02   0.0000000E+00   0.0000000E+00   0.0000000E+00   0.0000000E+00
   0.3488410E-01   0.4374330E-01   0.0000000E+00   0.0000000E+00   0.0000000E+00   0.0000000E+00   0.0000000E+00
   0.5031040E-01   0.5539730E-01  -0.9000000E-02   0.0000000E+00   0.0000000E+00   0.0000000E+00   0.0000000E+00
   0.3761510E-01   0.4141840E-01   0.0000000E+00   0.0000000E+00   0.0000000E+00   0.0000000E+00   0.0000000E+00
   0.4281330E-01   0.6137610E-01  -0.9000000E-02   0.0000000E+00   0.0000000E+00   0.0000000E+00   0.0000000E+00
   0.3200980E-01   0.4588850E-01   0.0000000E+00   0.0000000E+00   0.0000000E+00   0.0000000E+00   0.0000000E+00
   0.4665770E-01   0.5850690E-01  -0.9000000E-02   0.0000000E+00   0.0000000E+00   0.0000000E+00   0.0000000E+00
   0.3488410E-01   0.4374330E-01   0.0000000E+00   0.0000000E+00   0.0000000E+00   0.0000000E+00   0.0000000E+00
   0.3879290E-01   0.6399300E-01  -0.9000000E-02   0.0000000E+00   0.0000000E+00   0.0000000E+00   0.0000000E+00
   0.2900400E-01   0.4784510E-01   0.0000000E+00   0.0000000E+00   0.0000000E+00   0.0000000E+00   0.0000000E+00
   0.4281330E-01   0.6137610E-01  -0.9000000E-02   0.0000000E+00   0.0000000E+00   0.0000000E+00   0.0000000E+00
   0.3200980E-01   0.4588850E-01   0.0000000E+00   0.0000000E+00   0.0000000E+00   0.0000000E+00   0.0000000E+00
   0.3461320E-01   0.6634700E-01  -0.9000000E-02   0.0000000E+00   0.0000000E+00   0.0000000E+00   0.0000000E+00
   0.2587890E-01   0.4960500E-01   0.0000000E+00   0.0000000E+00   0.0000000E+00   0.0000000E+00   0.0000000E+00
   0.3879290E-01   0.6399300E-01  -0.9000000E-02   0.0000000E+00   0.0000000E+00   0.0000000E+00   0.0000000E+00
   0.2900400E-01   0.4784510E-01   0.0000000E+00   0.0000000E+00   0.0000000E+00   0.0000000E+00   0.0000000E+00
   0.3029120E-01   0.6842840E-01  -0.9000000E-02   0.0000000E+00   0.0000000E+00   0.0000000E+00   0.0000000E+00
   0.2264750E-01   0.5116120E-01   0.0000000E+00   0.0000000E+00   0.0000000E+00   0.0000000E+00   0.0000000E+00
   0.3461320E-01   0.6634700E-01  -0.9000000E-02   0.0000000E+00   0.0000000E+00   0.0000000E+00   0.0000000E+00
   0.2587890E-01   0.4960500E-01   0.0000000E+00   0.0000000E+00   0.0000000E+00   0.0000000E+00   0.0000000E+00
   0.2584480E-01   0.7022850E-01  -0.9000000E-02   0.0000000E+00   0.0000000E+00   0.0000000E+00   0.0000000E+00
   0.1932310E-01   0.5250710E-01   0.0000000E+00   0.0000000E+00   0.0000000E+00   0.0000000E+00   0.0000000E+00
   0.3029120E-01   0.6842840E-01  -0.9000000E-02   0.0000000E+00   0.0000000E+00   0.0000000E+00   0.0000000E+00
   0.2264750E-01   0.5116120E-01   0.0000000E+00   0.0000000E+00   0.0000000E+00   0.0000000E+00   0.0000000E+00
   0.2129210E-01   0.7174010E-01  -0.9000000E-02   0.0000000E+00   0.0000000E+00   0.0000000E+00   0.0000000E+00
   0.1591930E-01   0.5363730E-01   0.0000000E+00   0.0000000E+00   0.0000000E+00   0.0000000E+00   0.0000000E+00
   0.2584480E-01   0.7022850E-01  -0.9000000E-02   0.0000000E+00   0.0000000E+00   0.0000000E+00   0.0000000E+00
   0.1932310E-01   0.5250710E-01   0.0000000E+00   0.0000000E+00   0.0000000E+00   0.0000000E+00   0.0000000E+00
   0.1665190E-01   0.7295690E-01  -0.9000000E-02   0.0000000E+00   0.0000000E+00   0.0000000E+00   0.0000000E+00
   0.1245000E-01   0.5454700E-01   0.0000000E+00   0.0000000E+00   0.0000000E+00   0.0000000E+00   0.0000000E+00
   0.2129210E-01   0.7174010E-01  -0.9000000E-02   0.0000000E+00   0.0000000E+00   0.0000000E+00   0.0000000E+00
   0.1591930E-01   0.5363730E-01   0.0000000E+00   0.0000000E+00   0.0000000E+00   0.0000000E+00   0.0000000E+00
   0.1194340E-01   0.7387390E-01  -0.9000000E-02   0.0000000E+00   0.0000000E+00   0.0000000E+00   0.0000000E+00
   0.8929600E-02   0.5523260E-01   0.0000000E+00   0.0000000E+00   0.0000000E+00   0.0000000E+00   0.0000000E+00
   0.1665190E-01   0.7295690E-01  -0.9000000E-02   0.0000000E+00   0.0000000E+00   0.0000000E+00   0.0000000E+00
   0.1245000E-01   0.5454700E-01   0.0000000E+00   0.0000000E+00   0.0000000E+00   0.0000000E+00   0.0000000E+00
   0.7185700E-02   0.7448740E-01  -0.9000000E-02   0.0000000E+00   0.0000000E+00   0.0000000E+00   0.0000000E+00
   0.5372500E-02   0.5569130E-01   0.0000000E+00   0.0000000E+00   0.0000000E+00   0.0000000E+00   0.0000000E+00
   0.1194340E-01   0.7387390E-01  -0.9000000E-02   0.0000000E+00   0.0000000E+00   0.0000000E+00   0.0000000E+00
   0.8929600E-02   0.5523260E-01   0.0000000E+00   0.0000000E+00   0.0000000E+00   0.0000000E+00   0.0000000E+00
   0.2398500E-02   0.7479470E-01  -0.9000000E-02   0.0000000E+00   0.0000000E+00   0.0000000E+00   0.0000000E+00
   0.1793300E-02   0.5592110E-01   0.0000000E+00   0.0000000E+00   0.0000000E+00   0.0000000E+00   0.0000000E+00
   0.7185700E-02   0.7448740E-01  -0.9000000E-02   0.0000000E+00   0.0000000E+00   0.0000000E+00   0.0000000E+00
   0.5372500E-02   0.5569130E-01   0.0000000E+00   0.0000000E+00   0.0000000E+00   0.0000000E+00   0.0000000E+00
  -0.2398500E-02   0.7479470E-01  -0.9000000E-02   0.0000000E+00   0.0000000E+00   0.0000000E+00   0.0000000E+00
  -0.1793300E-02   0.5592110E-01   0.0000000E+00   0.0000000E+00   0.0000000E+00   0.0000000E+00   0.0000000E+00
   0.2398500E-02   0.7479470E-01  -0.9000000E-02   0.0000000E+00   0.0000000E+00   0.0000000E+00   0.0000000E+00
   0.1793300E-02   0.5592110E-01   0.0000000E+00   0.0000000E+00   0.0000000E+00   0.0000000E+00   0.0000000E+00
  -0.7185700E-02   0.7448740E-01  -0.9000000E-02   0.0000000E+00   0.0000000E+00   0.0000000E+00   0.0000000E+00
  -0.5372500E-02   0.5569130E-01   0.0000000E+00   0.0000000E+00   0.0000000E+00   0.0000000E+00   0.0000000E+00
  -0.2398500E-02   0.7479470E-01  -0.9000000E-02   0.0000000E+00   0.0000000E+00   0.0000000E+00   0.0000000E+00
  -0.1793300E-02   0.5592110E-01   0.0000000E+00   0.0000000E+00   0.0000000E+00   0.0000000E+00   0.0000000E+00
  -0.1194340E-01   0.7387390E-01  -0.9000000E-02   0.0000000E+00   0.0000000E+00   0.0000000E+00   0.0000000E+00
  -0.8929600E-02   0.5523260E-01   0.0000000E+00   0.0000000E+00   0.0000000E+00   0.0000000E+00   0.0000000E+00
  -0.7185700E-02   0.7448740E-01  -0.9000000E-02   0.0000000E+00   0.0000000E+00   0.0000000E+00   0.0000000E+00
  -0.5372500E-02   0.5569130E-01   0.0000000E+00   0.0000000E+00   0.0000000E+00   0.0000000E+00   0.0000000E+00
  -0.1665190E-01   0.7295690E-01  -0.9000000E-02   0.0000000E+00   0.0000000E+00   0.0000000E+00   0.0000000E+00
  -0.1245000E-01   0.5454700E-01   0.0000000E+00   0.0000000E+00   0.0000000E+00   0.0000000E+00   0.0000000E+00
  -0.1194340E-01   0.7387390E-01  -0.9000000E-02   0.0000000E+00   0.0000000E+00   0.0000000E+00   0.0000000E+00
  -0.8929600E-02   0.5523260E-01   0.0000000E+00   0.0000000E+00   0.0000000E+00   0.0000000E+00   0.0000000E+00
  -0.2129210E-01   0.7174010E-01  -0.9000000E-02   0.0000000E+00   0.0000000E+00   0.0000000E+00   0.0000000E+00
  -0.1591930E-01   0.5363730E-01   0.0000000E+00   0.0000000E+00   0.0000000E+00   0.0000000E+00   0.0000000E+00
  -0.1665190E-01   0.7295690E-01  -0.9000000E-02   0.0000000E+00   0.0000000E+00   0.0000000E+00   0.0000000E+00
  -0.1245000E-01   0.5454700E-01   0.0000000E+00   0.0000000E+00   0.0000000E+00   0.0000000E+00   0.0000000E+00
  -0.2584480E-01   0.7022850E-01  -0.9000000E-02   0.0000000E+00   0.0000000E+00   0.0000000E+00   0.0000000E+00
  -0.1932310E-01   0.5250710E-01   0.0000000E+00   0.0000000E+00   0.0000000E+00   0.0000000E+00   0.0000000E+00
  -0.2129210E-01   0.7174010E-01  -0.9000000E-02   0.0000000E+00   0.0000000E+00   0.0000000E+00   0.0000000E+00
  -0.1591930E-01   0.5363730E-01   0.0000000E+00   0.0000000E+00   0.0000000E+00   0.0000000E+00   0.0000000E+00
  -0.3029120E-01   0.6842840E-01  -0.9000000E-02   0.0000000E+00   0.0000000E+00   0.0000000E+00   0.0000000E+00
  -0.2264750E-01   0.5116120E-01   0.0000000E+00   0.0000000E+00   0.0000000E+00   0.0000000E+00   0.0000000E+00
  -0.2584480E-01   0.7022850E-01  -0.9000000E-02   0.0000000E+00   0.0000000E+00   0.0000000E+00   0.0000000E+00
  -0.1932310E-01   0.5250710E-01   0.0000000E+00   0.0000000E+00   0.0000000E+00   0.0000000E+00   0.0000000E+00
  -0.3461320E-01   0.6634700E-01  -0.9000000E-02   0.0000000E+00   0.0000000E+00   0.0000000E+00   0.0000000E+00
  -0.2587890E-01   0.4960500E-01   0.0000000E+00   0.0000000E+00   0.0000000E+00   0.0000000E+00   0.0000000E+00
  -0.3029120E-01   0.6842840E-01  -0.9000000E-02   0.0000000E+00   0.0000000E+00   0.0000000E+00   0.0000000E+00
  -0.2264750E-01   0.5116120E-01   0.0000000E+00   0.0000000E+00   0.0000000E+00   0.0000000E+00   0.0000000E+00
  -0.3879290E-01   0.6399300E-01  -0.9000000E-02   0.0000000E+00   0.0000000E+00   0.0000000E+00   0.0000000E+00
  -0.2900400E-01   0.4784510E-01   0.0000000E+00   0.0000000E+00   0.0000000E+00   0.0000000E+00   0.0000000E+00
  -0.3461320E-01   0.6634700E-01  -0.9000000E-02   0.0000000E+00   0.0000000E+00   0.0000000E+00   0.0000000E+00
  -0.2587890E-01   0.4960500E-01   0.0000000E+00   0.0000000E+00   0.0000000E+00   0.0000000E+00   0.0000000E+00
  -0.4281330E-01   0.6137610E-01  -0.9000000E-02   0.0000000E+00   0.0000000E+00   0.0000000E+00   0.0000000E+00
  -0.3200980E-01   0.4588850E-01   0.0000000E+00   0.0000000E+00   0.0000000E+00   0.0000000E+00   0.0000000E+00
  -0.3879290E-01   0.6399300E-01  -0.9000000E-02   0.0000000E+00   0.0000000E+00   0.0000000E+00   0.0000000E+00
  -0.2900400E-01   0.4784510E-01   0.0000000E+00   0.0000000E+00   0.0000000E+00   0.0000000E+00   0.0000000E+00
  -0.4665770E-01   0.5850690E-01  -0.9000000E-02   0.0000000E+00   0.0000000E+00   0.0000000E+00   0.0000000E+00
  -0.3488410E-01   0.4374330E-01   0.0000000E+00   0.0000000E+00   0.0000000E+00   0.0000000E+00   0.0000000E+00
  -0.4281330E-01   0.6137610E-01  -0.9000000E-02   0.0000000E+00   0.0000000E+00   0.0000000E+00   0.0000000E+00
  -0.3200980E-01   0.4588850E-01   0.0000000E+00   0.0000000E+00   0.0000000E+00   0.0000000E+00   0.0000000E+00
  -0.5031040E-01   0.5539730E-01  -0.9000000E-02   0.0000000E+00   0.0000000E+00   0.0000000E+00   0.0000000E+00
  -0.3761510E-01   0.4141840E-01   0.0000000E+00   0.0000000E+00   0.0000000E+00   0.0000000E+00   0.0000000E+00
  -0.4665770E-01   0.5850690E-01  -0.9000000E-02   0.0000000E+00   0.0000000E+00   0.0000000E+00   0.0000000E+00
  -0.3488410E-01   0.4374330E-01   0.0000000E+00   0.0000000E+00   0.0000000E+00   0.0000000E+00   0.0000000E+00
  -0.5375630E-01   0.5206010E-01  -0.9000000E-02   0.0000000E+00   0.0000000E+00   0.0000000E+00   0.0000000E+00
  -0.4019150E-01   0.3892330E-01   0.0000000E+00   0.0000000E+00   0.0000000E+00   0.0000000E+00   0.0000000E+00
  -0.5031040E-01   0.5539730E-01  -0.9000000E-02   0.0000000E+00   0.0000000E+00   0.0000000E+00   0.0000000E+00
  -0.3761510E-01   0.4141840E-01   0.0000000E+00   0.0000000E+00   0.0000000E+00   0.0000000E+00   0.0000000E+00
  -0.5698140E-01   0.4850900E-01  -0.9000000E-02   0.0000000E+00   0.0000000E+00   0.0000000E+00   0.0000000E+00
  -0.4260270E-01   0.3626830E-01   0.0000000E+00   0.0000000E+00   0.0000000E+00   0.0000000E+00   0.0000000E+00
  -0.5375630E-01   0.5206010E-01  -0.9000000E-02   0.0000000E+00   0.0000000E+00   0.0000000E+00   0.0000000E+00
  -0.4019150E-01   0.3892330E-01   0.0000000E+00   0.0000000E+00   0.0000000E+00   0.0000000E+00   0.0000000E+00
  -0.5997230E-01   0.4475850E-01  -0.9000000E-02   0.0000000E+00   0.0000000E+00   0.0000000E+00   0.0000000E+00
  -0.4483890E-01   0.3346420E-01   0.0000000E+00   0.0000000E+00   0.0000000E+00   0.0000000E+00   0.0000000E+00
  -0.5698140E-01   0.4850900E-01  -0.9000000E-02   0.0000000E+00   0.0000000E+00   0.0000000E+00   0.0000000E+00
  -0.4260270E-01   0.3626830E-01   0.0000000E+00   0.0000000E+00   0.0000000E+00   0.0000000E+00   0.0000000E+00
  -0.6271680E-01   0.4082410E-01  -0.9000000E-02   0.0000000E+00   0.0000000E+00   0.0000000E+00   0.0000000E+00
  -0.4689090E-01   0.3052260E-01   0.0000000E+00   0.0000000E+00   0.0000000E+00   0.0000000E+00   0.0000000E+00
  -0.5997230E-01   0.4475850E-01  -0.9000000E-02   0.0000000E+00   0.0000000E+00   0.0000000E+00   0.0000000E+00
  -0.4483890E-01   0.3346420E-01   0.0000000E+00   0.0000000E+00   0.0000000E+00   0.0000000E+00   0.0000000E+00
  -0.6520350E-01   0.3672190E-01  -0.9000000E-02   0.0000000E+00   0.0000000E+00   0.0000000E+00   0.0000000E+00
  -0.4875010E-01   0.2745550E-01   0.0000000E+00   0.0000000E+00   0.0000000E+00   0.0000000E+00   0.0000000E+00
  -0.6271680E-01   0.4082410E-01  -0.9000000E-02   0.0000000E+00   0.0000000E+00   0.0000000E+00   0.0000000E+00
  -0.4689090E-01   0.3052260E-01   0.0000000E+00   0.0000000E+00   0.0000000E+00   0.0000000E+00   0.0000000E+00
  -0.6742230E-01   0.3246890E-01  -0.9000000E-02   0.0000000E+00   0.0000000E+00   0.0000000E+00   0.0000000E+00
  -0.5040900E-01   0.2427570E-01   0.0000000E+00   0.0000000E+00   0.0000000E+00   0.0000000E+00   0.0000000E+00
  -0.6520350E-01   0.3672190E-01  -0.9000000E-02   0.0000000E+00   0.0000000E+00   0.0000000E+00   0.0000000E+00
  -0.4875010E-01   0.2745550E-01   0.0000000E+00   0.0000000E+00   0.0000000E+00   0.0000000E+00   0.0000000E+00
  -0.6936410E-01   0.2808240E-01  -0.9000000E-02   0.0000000E+00   0.0000000E+00   0.0000000E+00   0.0000000E+00
  -0.5186080E-01   0.2099610E-01   0.0000000E+00   0.0000000E+00   0.0000000E+00   0.0000000E+00   0.0000000E+00
  -0.6742230E-01   0.3246890E-01  -0.9000000E-02   0.0000000E+00   0.0000000E+00   0.0000000E+00   0.0000000E+00
  -0.5040900E-01   0.2427570E-01   0.0000000E+00   0.0000000E+00   0.0000000E+00   0.0000000E+00   0.0000000E+00
  -0.7102080E-01   0.2358050E-01  -0.9000000E-02   0.0000000E+00   0.0000000E+00   0.0000000E+00   0.0000000E+00
  -0.5309950E-01   0.1763020E-01   0.0000000E+00   0.0000000E+00   0.0000000E+00   0.0000000E+00   0.0000000E+00
  -0.6936410E-01   0.2808240E-01  -0.9000000E-02   0.0000000E+00   0.0000000E+00   0.0000000E+00   0.0000000E+00
  -0.5186080E-01   0.2099610E-01   0.0000000E+00   0.0000000E+00   0.0000000E+00   0.0000000E+00   0.0000000E+00
  -0.7238570E-01   0.1898180E-01  -0.9000000E-02   0.0000000E+00   0.0000000E+00   0.0000000E+00   0.0000000E+00
  -0.5412000E-01   0.1419190E-01   0.0000000E+00   0.0000000E+00   0.0000000E+00   0.0000000E+00   0.0000000E+00
  -0.7102080E-01   0.2358050E-01  -0.9000000E-02   0.0000000E+00   0.0000000E+00   0.0000000E+00   0.0000000E+00
  -0.5309950E-01   0.1763020E-01   0.0000000E+00   0.0000000E+00   0.0000000E+00   0.0000000E+00   0.0000000E+00
  -0.7345320E-01   0.1430500E-01  -0.9000000E-02   0.0000000E+00   0.0000000E+00   0.0000000E+00   0.0000000E+00
  -0.5491800E-01   0.1069530E-01   0.0000000E+00   0.0000000E+00   0.0000000E+00   0.0000000E+00   0.0000000E+00
  -0.7238570E-01   0.1898180E-01  -0.9000000E-02   0.0000000E+00   0.0000000E+00   0.0000000E+00   0.0000000E+00
  -0.5412000E-01   0.1419190E-01   0.0000000E+00   0.0000000E+00   0.0000000E+00   0.0000000E+00   0.0000000E+00
  -0.7421880E-01   0.9569500E-02  -0.9000000E-02   0.0000000E+00   0.0000000E+00   0.0000000E+00   0.0000000E+00
  -0.5549050E-01   0.7154700E-02   0.0000000E+00   0.0000000E+00   0.0000000E+00   0.0000000E+00   0.0000000E+00
  -0.7345320E-01   0.1430500E-01  -0.9000000E-02   0.0000000E+00   0.0000000E+00   0.0000000E+00   0.0000000E+00
  -0.5491800E-01   0.1069530E-01   0.0000000E+00   0.0000000E+00   0.0000000E+00   0.0000000E+00   0.0000000E+00
  -0.7467940E-01   0.4794600E-02  -0.9000000E-02   0.0000000E+00   0.0000000E+00   0.0000000E+00   0.0000000E+00
  -0.5583480E-01   0.3584700E-02   0.0000000E+00   0.0000000E+00   0.0000000E+00   0.0000000E+00   0.0000000E+00
  -0.7421880E-01   0.9569500E-02  -0.9000000E-02   0.0000000E+00   0.0000000E+00   0.0000000E+00   0.0000000E+00
  -0.5549050E-01   0.7154700E-02   0.0000000E+00   0.0000000E+00   0.0000000E+00   0.0000000E+00   0.0000000E+00
  -0.7483310E-01   0.0000000E+00  -0.9000000E-02   0.0000000E+00   0.0000000E+00   0.0000000E+00   0.0000000E+00
  -0.5594980E-01   0.0000000E+00   0.0000000E+00   0.0000000E+00   0.0000000E+00   0.0000000E+00   0.0000000E+00
  -0.7467940E-01   0.4794600E-02  -0.9000000E-02   0.0000000E+00   0.0000000E+00   0.0000000E+00   0.0000000E+00
  -0.5583480E-01   0.3584700E-02   0.0000000E+00   0.0000000E+00   0.0000000E+00   0.0000000E+00   0.0000000E+00
   0.8981510E-01   0.5766300E-02  -0.1900000E-01   0.0000000E+00   0.0000000E+00   0.0000000E+00   0.0000000E+00
   0.7467940E-01   0.4794600E-02  -0.9000000E-02   0.0000000E+00   0.0000000E+00   0.0000000E+00   0.0000000E+00
   0.9000000E-01   0.0000000E+00  -0.1900000E-01   0.0000000E+00   0.0000000E+00   0.0000000E+00   0.0000000E+00
   0.7483310E-01   0.0000000E+00  -0.9000000E-02   0.0000000E+00   0.0000000E+00   0.0000000E+00   0.0000000E+00
   0.8926110E-01   0.1150890E-01  -0.1900000E-01   0.0000000E+00   0.0000000E+00   0.0000000E+00   0.0000000E+00
   0.7421880E-01   0.9569500E-02  -0.9000000E-02   0.0000000E+00   0.0000000E+00   0.0000000E+00   0.0000000E+00
   0.8981510E-01   0.5766300E-02  -0.1900000E-01   0.0000000E+00   0.0000000E+00   0.0000000E+00   0.0000000E+00
   0.7467940E-01   0.4794600E-02  -0.9000000E-02   0.0000000E+00   0.0000000E+00   0.0000000E+00   0.0000000E+00
   0.8834030E-01   0.1720430E-01  -0.1900000E-01   0.0000000E+00   0.0000000E+00   0.0000000E+00   0.0000000E+00
   0.7345320E-01   0.1430500E-01  -0.9000000E-02   0.0000000E+00   0.0000000E+00   0.0000000E+00   0.0000000E+00
   0.8926110E-01   0.1150890E-01  -0.1900000E-01   0.0000000E+00   0.0000000E+00   0.0000000E+00   0.0000000E+00
   0.7421880E-01   0.9569500E-02  -0.9000000E-02   0.0000000E+00   0.0000000E+00   0.0000000E+00   0.0000000E+00
   0.8705650E-01   0.2282890E-01  -0.1900000E-01   0.0000000E+00   0.0000000E+00   0.0000000E+00   0.0000000E+00
   0.7238570E-01   0.1898180E-01  -0.9000000E-02   0.0000000E+00   0.0000000E+00   0.0000000E+00   0.0000000E+00
   0.8834030E-01   0.1720430E-01  -0.1900000E-01   0.0000000E+00   0.0000000E+00   0.0000000E+00   0.0000000E+00
   0.7345320E-01   0.1430500E-01  -0.9000000E-02   0.0000000E+00   0.0000000E+00   0.0000000E+00   0.0000000E+00
   0.8541500E-01   0.2835970E-01  -0.1900000E-01   0.0000000E+00   0.0000000E+00   0.0000000E+00   0.0000000E+00
   0.7102080E-01   0.2358050E-01  -0.9000000E-02   0.0000000E+00   0.0000000E+00   0.0000000E+00   0.0000000E+00
   0.8705650E-01   0.2282890E-01  -0.1900000E-01   0.0000000E+00   0.0000000E+00   0.0000000E+00   0.0000000E+00
   0.7238570E-01   0.1898180E-01  -0.9000000E-02   0.0000000E+00   0.0000000E+00   0.0000000E+00   0.0000000E+00
   0.8342250E-01   0.3377400E-01  -0.1900000E-01   0.0000000E+00   0.0000000E+00   0.0000000E+00   0.0000000E+00
   0.6936410E-01   0.2808240E-01  -0.9000000E-02   0.0000000E+00   0.0000000E+00   0.0000000E+00   0.0000000E+00
   0.8541500E-01   0.2835970E-01  -0.1900000E-01   0.0000000E+00   0.0000000E+00   0.0000000E+00   0.0000000E+00
   0.7102080E-01   0.2358050E-01  -0.9000000E-02   0.0000000E+00   0.0000000E+00   0.0000000E+00   0.0000000E+00
   0.8108720E-01   0.3904950E-01  -0.1900000E-01   0.0000000E+00   0.0000000E+00   0.0000000E+00   0.0000000E+00
   0.6742230E-01   0.3246890E-01  -0.9000000E-02   0.0000000E+00   0.0000000E+00   0.0000000E+00   0.0000000E+00
   0.8342250E-01   0.3377400E-01  -0.1900000E-01   0.0000000E+00   0.0000000E+00   0.0000000E+00   0.0000000E+00
   0.6936410E-01   0.2808240E-01  -0.9000000E-02   0.0000000E+00   0.0000000E+00   0.0000000E+00   0.0000000E+00
   0.7841870E-01   0.4416460E-01  -0.1900000E-01   0.0000000E+00   0.0000000E+00   0.0000000E+00   0.0000000E+00
   0.6520350E-01   0.3672190E-01  -0.9000000E-02   0.0000000E+00   0.0000000E+00   0.0000000E+00   0.0000000E+00
   0.8108720E-01   0.3904950E-01  -0.1900000E-01   0.0000000E+00   0.0000000E+00   0.0000000E+00   0.0000000E+00
   0.6742230E-01   0.3246890E-01  -0.9000000E-02   0.0000000E+00   0.0000000E+00   0.0000000E+00   0.0000000E+00
   0.7542790E-01   0.4909810E-01  -0.1900000E-01   0.0000000E+00   0.0000000E+00   0.0000000E+00   0.0000000E+00
   0.6271680E-01   0.4082410E-01  -0.9000000E-02   0.0000000E+00   0.0000000E+00   0.0000000E+00   0.0000000E+00
   0.7841870E-01   0.4416460E-01  -0.1900000E-01   0.0000000E+00   0.0000000E+00   0.0000000E+00   0.0000000E+00
   0.6520350E-01   0.3672190E-01  -0.9000000E-02   0.0000000E+00   0.0000000E+00   0.0000000E+00   0.0000000E+00
   0.7212720E-01   0.5382990E-01  -0.1900000E-01   0.0000000E+00   0.0000000E+00   0.0000000E+00   0.0000000E+00
   0.5997230E-01   0.4475850E-01  -0.9000000E-02   0.0000000E+00   0.0000000E+00   0.0000000E+00   0.0000000E+00
   0.7542790E-01   0.4909810E-01  -0.1900000E-01   0.0000000E+00   0.0000000E+00   0.0000000E+00   0.0000000E+00
   0.6271680E-01   0.4082410E-01  -0.9000000E-02   0.0000000E+00   0.0000000E+00   0.0000000E+00   0.0000000E+00
   0.6853010E-01   0.5834060E-01  -0.1900000E-01   0.0000000E+00   0.0000000E+00   0.0000000E+00   0.0000000E+00
   0.5698140E-01   0.4850900E-01  -0.9000000E-02   0.0000000E+00   0.0000000E+00   0.0000000E+00   0.0000000E+00
   0.7212720E-01   0.5382990E-01  -0.1900000E-01   0.0000000E+00   0.0000000E+00   0.0000000E+00   0.0000000E+00
   0.5997230E-01   0.4475850E-01  -0.9000000E-02   0.0000000E+00   0.0000000E+00   0.0000000E+00   0.0000000E+00
   0.6465140E-01   0.6261140E-01  -0.1900000E-01   0.0000000E+00   0.0000000E+00   0.0000000E+00   0.0000000E+00
   0.5375630E-01   0.5206010E-01  -0.9000000E-02   0.0000000E+00   0.0000000E+00   0.0000000E+00   0.0000000E+00
   0.6853010E-01   0.5834060E-01  -0.1900000E-01   0.0000000E+00   0.0000000E+00   0.0000000E+00   0.0000000E+00
   0.5698140E-01   0.4850900E-01  -0.9000000E-02   0.0000000E+00   0.0000000E+00   0.0000000E+00   0.0000000E+00
   0.6050710E-01   0.6662500E-01  -0.1900000E-01   0.0000000E+00   0.0000000E+00   0.0000000E+00   0.0000000E+00
   0.5031040E-01   0.5539730E-01  -0.9000000E-02   0.0000000E+00   0.0000000E+00   0.0000000E+00   0.0000000E+00
   0.6465140E-01   0.6261140E-01  -0.1900000E-01   0.0000000E+00   0.0000000E+00   0.0000000E+00   0.0000000E+00
   0.5375630E-01   0.5206010E-01  -0.9000000E-02   0.0000000E+00   0.0000000E+00   0.0000000E+00   0.0000000E+00
   0.5611410E-01   0.7036480E-01  -0.1900000E-01   0.0000000E+00   0.0000000E+00   0.0000000E+00   0.0000000E+00
   0.4665770E-01   0.5850690E-01  -0.9000000E-02   0.0000000E+00   0.0000000E+00   0.0000000E+00   0.0000000E+00
   0.6050710E-01   0.6662500E-01  -0.1900000E-01   0.0000000E+00   0.0000000E+00   0.0000000E+00   0.0000000E+00
   0.5031040E-01   0.5539730E-01  -0.9000000E-02   0.0000000E+00   0.0000000E+00   0.0000000E+00   0.0000000E+00
   0.5149050E-01   0.7381550E-01  -0.1900000E-01   0.0000000E+00   0.0000000E+00   0.0000000E+00   0.0000000E+00
   0.4281330E-01   0.6137610E-01  -0.9000000E-02   0.0000000E+00   0.0000000E+00   0.0000000E+00   0.0000000E+00
   0.5611410E-01   0.7036480E-01  -0.1900000E-01   0.0000000E+00   0.0000000E+00   0.0000000E+00   0.0000000E+00
   0.4665770E-01   0.5850690E-01  -0.9000000E-02   0.0000000E+00   0.0000000E+00   0.0000000E+00   0.0000000E+00
   0.4665530E-01   0.7696290E-01  -0.1900000E-01   0.0000000E+00   0.0000000E+00   0.0000000E+00   0.0000000E+00
   0.3879290E-01   0.6399300E-01  -0.9000000E-02   0.0000000E+00   0.0000000E+00   0.0000000E+00   0.0000000E+00
   0.5149050E-01   0.7381550E-01  -0.1900000E-01   0.0000000E+00   0.0000000E+00   0.0000000E+00   0.0000000E+00
   0.4281330E-01   0.6137610E-01  -0.9000000E-02   0.0000000E+00   0.0000000E+00   0.0000000E+00   0.0000000E+00
   0.4162850E-01   0.7979390E-01  -0.1900000E-01   0.0000000E+00   0.0000000E+00   0.0000000E+00   0.0000000E+00
   0.3461320E-01   0.6634700E-01  -0.9000000E-02   0.0000000E+00   0.0000000E+00   0.0000000E+00   0.0000000E+00