VARIABLES="w (rad/s)"
"abs(F   1   1)" "angle(F   1   1)"
"abs(F   1   2)" "angle(F   1   2)"
"abs(F   1   3)" "angle(F   1   3)"
Zone t="FKforce - beta =   0.000",I=    32,F=POINT
  0.1000000E+00  0.8316209E+03 -0.1570793E+01  0.4667737E+06  0.6548356E-11  0.3335788E+04 -0.1570797E+01
  0.2000000E+00  0.3315211E+04 -0.1570796E+01  0.4642775E+06 -0.5548489E-10  0.1330137E+05 -0.1570797E+01
  0.3000000E+00  0.7416844E+04 -0.1570797E+01  0.4601166E+06 -0.2092111E-09  0.2977076E+05 -0.1570796E+01
  0.4000000E+00  0.1307956E+05 -0.1570796E+01  0.4542972E+06 -0.7840952E-10  0.5253145E+05 -0.1570797E+01
  0.5000000E+00  0.2022286E+05 -0.1570797E+01  0.4468208E+06 -0.6006209E-10  0.8128120E+05 -0.1570796E+01
  0.6000001E+00  0.2874204E+05 -0.1570796E+01  0.4376989E+06  0.7017896E-09  0.1156227E+06 -0.1570796E+01
  0.7000000E+00  0.3850719E+05 -0.1570796E+01  0.4269414E+06 -0.8085426E-09  0.1550609E+06 -0.1570796E+01
  0.8000001E+00  0.4936277E+05 -0.1570796E+01  0.4145675E+06  0.3314025E-09  0.1989925E+06 -0.1570796E+01
  0.9000000E+00  0.6112632E+05 -0.1570796E+01  0.4006008E+06 -0.2353307E-08  0.2467070E+06 -0.1570796E+01
  0.1000000E+01  0.7358866E+05 -0.1570796E+01  0.3850767E+06 -0.2293161E-08  0.2973786E+06 -0.1570796E+01
  0.1100000E+01  0.8651350E+05 -0.1570796E+01  0.3680428E+06 -0.2392816E-08  0.3500647E+06 -0.1570796E+01
  0.1200000E+01  0.9963762E+05 -0.1570796E+01  0.3495587E+06 -0.1099815E-09  0.4037068E+06 -0.1570796E+01
  0.1300000E+01  0.1126734E+06 -0.1570796E+01  0.3297052E+06  0.5079964E-08  0.4571349E+06 -0.1570796E+01
  0.1400000E+01  0.1253100E+06 -0.1570796E+01  0.3085809E+06  0.1286427E-08  0.5090781E+06 -0.1570796E+01
  0.1500000E+01  0.1372177E+06 -0.1570796E+01  0.2863094E+06  0.3196852E-08  0.5581772E+06 -0.1570796E+01
  0.1600000E+01  0.1480540E+06 -0.1570796E+01  0.2630385E+06 -0.3534968E-08  0.6030069E+06 -0.1570796E+01
  0.1700000E+01  0.1574700E+06 -0.1570796E+01  0.2389468E+06 -0.2272465E-09  0.6421125E+06 -0.1570796E+01
  0.1800000E+01  0.1651185E+06 -0.1570796E+01  0.2142423E+06 -0.5391737E-09  0.6740394E+06 -0.1570796E+01
  0.1900000E+01  0.1706684E+06 -0.1570796E+01  0.1891635E+06  0.1029355E-07  0.6973885E+06 -0.1570796E+01
  0.2000000E+01  0.1738141E+06 -0.1570796E+01  0.1639796E+06 -0.4204832E-08  0.7108694E+06 -0.1570796E+01
  0.2100000E+01  0.1742933E+06 -0.1570796E+01  0.1389878E+06 -0.1951087E-07  0.7133626E+06 -0.1570796E+01
  0.2200000E+01  0.1719017E+06 -0.1570796E+01  0.1145106E+06  0.6157710E-09  0.7039928E+06 -0.1570796E+01
  0.2300000E+01  0.1665098E+06 -0.1570796E+01  0.9088748E+05  0.1352930E-08  0.6822000E+06 -0.1570796E+01
  0.2400000E+01  0.1580817E+06 -0.1570796E+01  0.6846899E+05 -0.1014608E-08  0.6478101E+06 -0.1570796E+01
  0.2500000E+01  0.1466879E+06 -0.1570796E+01  0.4760501E+05 -0.3910267E-07  0.6010962E+06 -0.1570796E+01
  0.2600000E+01  0.1325193E+06 -0.1570796E+01  0.2863245E+05 -0.4454665E-07  0.5428407E+06 -0.1570796E+01
  0.2700000E+01  0.1158954E+06 -0.1570796E+01  0.1186051E+05 -0.6731615E-08  0.4743605E+06 -0.1570796E+01
  0.2800000E+01  0.9726729E+05 -0.1570796E+01  0.2444711E+04 -0.3141593E+01  0.3975287E+06 -0.1570796E+01
  0.2900000E+01  0.7721079E+05 -0.1570796E+01  0.1407713E+05 -0.3141593E+01  0.3147373E+06 -0.1570796E+01
  0.3000000E+01  0.5641453E+05 -0.1570796E+01  0.2290615E+05 -0.3141593E+01  0.2288455E+06 -0.1570796E+01
  0.3100000E+01  0.3565324E+05 -0.1570796E+01  0.2889105E+05 -0.3141593E+01  0.1430782E+06 -0.1570796E+01
  0.3200000E+01  0.1575522E+05 -0.1570796E+01  0.3209215E+05 -0.3141593E+01  0.6087673E+05 -0.1570796E+01
