VARIABLES="w (rad/s)"
"A   1   1" "B   1   1"
"A   1   2" "B   1   2"
"A   1   3" "B   1   3"
Zone t="Motion of body    1 in DoF   1",I=    32,F=POINT
  0.1000000E+00  0.3820195E+05  0.3922143E-03  0.6514788E-03  0.2685348E-05  0.1491085E+06  0.1557173E-02
  0.2000000E+00  0.3844725E+05  0.4895760E-01 -0.4502982E-02 -0.3668377E-04  0.1500266E+06  0.1947293E+00
  0.3000000E+00  0.3872813E+05  0.8241834E+00  0.4478395E-02  0.1600249E-03  0.1511817E+06  0.3280417E+01
  0.4000000E+00  0.3907599E+05  0.6047340E+01 -0.6177276E-03  0.3700528E-04  0.1525867E+06  0.2408500E+02
  0.5000000E+00  0.3958530E+05  0.2806813E+02 -0.2538669E-01 -0.2856544E-02  0.1546444E+06  0.1118827E+03
  0.6000001E+00  0.4027259E+05  0.9728891E+02  0.1462499E-02  0.2537074E-03  0.1574321E+06  0.3882014E+03
  0.7000000E+00  0.4124129E+05  0.2750919E+03 -0.2014313E-01 -0.5992773E-02  0.1613802E+06  0.1099001E+04
  0.8000001E+00  0.4223666E+05  0.6675069E+03 -0.3016949E-01 -0.1594000E-01  0.1653823E+06  0.2669968E+04
  0.9000000E+00  0.4359831E+05  0.1438182E+04  0.1435445E-01  0.8385533E-02  0.1709338E+06  0.5760828E+04
  0.1000000E+01  0.4490126E+05  0.2804686E+04  0.2228892E-01  0.1632954E-01  0.1762055E+06  0.1125072E+05
  0.1100000E+01  0.4632923E+05  0.5017987E+04 -0.1416965E-01 -0.1761882E-01  0.1820647E+06  0.2016055E+05
  0.1200000E+01  0.4734634E+05  0.8314337E+04 -0.1635353E-02 -0.9822920E-03  0.1862288E+06  0.3345786E+05
  0.1300000E+01  0.4786277E+05  0.1279090E+05  0.1423176E-03 -0.5038530E-03  0.1884179E+06  0.5155784E+05
  0.1400000E+01  0.4764360E+05  0.1835272E+05 -0.1108212E-01 -0.2518849E-01  0.1876463E+06  0.7409925E+05
  0.1500000E+01  0.4655805E+05  0.2463265E+05 -0.1061813E-01 -0.2032988E-01  0.1833578E+06  0.9961579E+05
  0.1600000E+01  0.4461043E+05  0.3108514E+05 -0.6178990E-02 -0.1192376E-01  0.1755636E+06  0.1259129E+06
  0.1700000E+01  0.4199120E+05  0.3713207E+05  0.2236016E-02  0.1673251E-02  0.1650205E+06  0.1506446E+06
  0.1800000E+01  0.3898050E+05  0.4231991E+05 -0.5215804E-02 -0.1074395E-01  0.1528520E+06  0.1719540E+06
  0.1900000E+01  0.3585643E+05  0.4640923E+05 -0.9802141E-02 -0.1175308E-01  0.1401816E+06  0.1888457E+06
  0.2000000E+01  0.3284220E+05  0.4935203E+05  0.5340159E-02  0.7249802E-02  0.1279187E+06  0.2010986E+06
  0.2100000E+01  0.3008132E+05  0.5123118E+05  0.2804711E-02 -0.2074683E-01  0.1166552E+06  0.2090295E+06
  0.2200000E+01  0.2763832E+05  0.5221336E+05 -0.5712292E-02  0.2809525E-02  0.1066615E+06  0.2132989E+06
  0.2300000E+01  0.2553554E+05  0.5246660E+05  0.1696711E-02 -0.9255469E-02  0.9803364E+05  0.2145750E+06
  0.2400000E+01  0.2376044E+05  0.5214110E+05 -0.4745523E-02 -0.6354868E-02  0.9072987E+05  0.2134663E+06
  0.2500000E+01  0.2228102E+05  0.5139770E+05  0.2550411E-02  0.2337366E-02  0.8462352E+05  0.2106225E+06
  0.2600000E+01  0.2106377E+05  0.5031774E+05 -0.3561240E-02  0.3016755E-02  0.7958680E+05  0.2063726E+06
  0.2700000E+01  0.2007329E+05  0.4899147E+05 -0.4839014E-04  0.3410906E-02  0.7547306E+05  0.2010802E+06
  0.2800000E+01  0.1927933E+05  0.4746794E+05  0.1010852E-01  0.4785061E-02  0.7216709E+05  0.1949581E+06
  0.2900000E+01  0.1865144E+05  0.4579467E+05  0.4202908E-02  0.4311532E-02  0.6954638E+05  0.1882008E+06
  0.3000000E+01  0.1816832E+05  0.4389007E+05  0.3252665E-02  0.2886310E-02  0.6752929E+05  0.1804746E+06
  0.3100000E+01  0.1781958E+05  0.4150269E+05  0.2310353E-02  0.6817505E-03  0.6608498E+05  0.1707716E+06
  0.3200000E+01  0.1766106E+05  0.3653167E+05 -0.5675107E-03 -0.4546568E-03  0.6552696E+05  0.1506239E+06
Zone t="Motion of body    1 in DoF   2",I=    32,F=POINT
  0.1000000E+00  0.1809001E-02 -0.4591420E-06  0.1093947E+06  0.1132131E+03  0.4206598E-02 -0.2426095E-05
  0.2000000E+00 -0.3178120E-02 -0.8940697E-06  0.1119932E+06  0.8829638E+03 -0.2246380E-01 -0.7801130E-04
  0.3000000E+00  0.1450380E-02 -0.1275539E-04  0.1139309E+06  0.2852717E+04 -0.3160635E-02 -0.1283884E-03
  0.4000000E+00  0.1239777E-03 -0.7024407E-04  0.1146807E+06  0.6351135E+04  0.1278520E-03  0.1705289E-03
  0.5000000E+00 -0.5211830E-02 -0.1273751E-03  0.1137695E+06  0.1143035E+05 -0.2486944E-01 -0.8311868E-04
  0.6000001E+00 -0.3923574E-02  0.2425909E-03  0.1111200E+06  0.1786949E+05 -0.2333839E-01 -0.4668832E-03
  0.7000000E+00 -0.8167540E-02  0.4506111E-04  0.1069629E+06  0.2524187E+05 -0.3916400E-01 -0.2106190E-02
  0.8000001E+00 -0.2490878E-02 -0.1640320E-03  0.1016320E+06  0.3301584E+05 -0.1729280E-01 -0.2717495E-02
  0.9000000E+00  0.1122210E-01  0.1748562E-02  0.9549355E+05  0.4068507E+05  0.4516416E-01  0.6336808E-02
  0.1000000E+01  0.1013184E-01  0.1394987E-02  0.8905675E+05  0.4778649E+05  0.3678727E-01  0.1944304E-03
  0.1100000E+01 -0.4302805E-02  0.1412630E-02  0.8260058E+05  0.5403881E+05 -0.2104521E-01 -0.1489997E-02
  0.1200000E+01  0.5614758E-03  0.8676052E-03  0.7641015E+05  0.5921326E+05 -0.1299183E-02  0.2510905E-02
  0.1300000E+01 -0.1074351E-02  0.1955032E-02  0.7071914E+05  0.6322849E+05 -0.4393321E-02 -0.1641512E-03
  0.1400000E+01 -0.8436612E-02 -0.2781868E-02  0.6557351E+05  0.6611052E+05 -0.3622975E-01 -0.1130116E-01
  0.1500000E+01 -0.1049964E-01 -0.4985094E-02  0.6103158E+05  0.6791254E+05 -0.4027494E-01 -0.1552451E-01
  0.1600000E+01 -0.6127954E-02 -0.3233433E-02  0.5710642E+05  0.6873111E+05 -0.2362251E-01 -0.2286291E-01
  0.1700000E+01  0.4386902E-02  0.5879402E-02  0.5378199E+05  0.6867631E+05  0.1843116E-01  0.2723050E-01
  0.1800000E+01 -0.6472270E-02 -0.3673792E-02  0.5101238E+05  0.6787293E+05 -0.3047175E-01 -0.2121842E-01
  0.1900000E+01 -0.7757137E-02 -0.1938105E-02  0.4875492E+05  0.6645302E+05 -0.2960557E-01 -0.1019979E-01
  0.2000000E+01  0.7010937E-02  0.6832361E-02  0.4695229E+05  0.6451943E+05  0.2484417E-01  0.2527177E-01
  0.2100000E+01 -0.4038584E-02 -0.6997824E-02  0.4554354E+05  0.6216386E+05 -0.1553990E-01 -0.3901160E-01
  0.2200000E+01 -0.6376613E-03  0.4852772E-02  0.4447975E+05  0.5948658E+05 -0.1488165E-02  0.2210379E-01
  0.2300000E+01  0.1117043E-02 -0.4588366E-03  0.4370329E+05  0.5650207E+05  0.3330397E-02 -0.8207321E-02
  0.2400000E+01 -0.3608465E-02 -0.7355213E-02  0.4315137E+05  0.5315018E+05 -0.1598239E-01 -0.3166175E-01
  0.2500000E+01  0.3100586E-02  0.6789446E-02  0.4279666E+05  0.4915237E+05  0.1044922E-01  0.2621210E-01
  0.2600000E+01  0.7188871E-02  0.6758213E-02  0.4244007E+05  0.4244666E+05  0.2792615E-01  0.2787840E-01
  0.2700000E+01 -0.2657749E-01  0.6994724E-02  0.3376708E+05  0.9344438E+05 -0.1151518E+00 -0.1193285E-02
  0.2800000E+01  0.1031705E-01  0.7794619E-02  0.4273758E+05  0.5020602E+05  0.3256832E-01  0.3033131E-01
  0.2900000E+01  0.1467014E-02  0.3517270E-02  0.4292484E+05  0.4467029E+05  0.7525805E-03  0.9584010E-02
  0.3000000E+01  0.5016327E-03 -0.4499197E-02  0.4315942E+05  0.4101212E+05 -0.1386960E-02 -0.1946253E-01
  0.3100000E+01 -0.1442817E-02 -0.5323291E-03  0.4345574E+05  0.3793336E+05 -0.1012556E-01 -0.6323695E-02
  0.3200000E+01 -0.1716018E-02  0.1327634E-02  0.4379665E+05  0.3512917E+05 -0.8898079E-02  0.7215202E-02
Zone t="Motion of body    1 in DoF   3",I=    32,F=POINT
  0.1000000E+00  0.1491670E+06  0.1556781E-02  0.1393639E-01  0.1395707E-04  0.5970366E+06  0.6171361E-02
  0.2000000E+00  0.1500804E+06  0.1948199E+00 -0.4104450E-02 -0.8275743E-04  0.6005067E+06  0.7749344E+00
  0.3000000E+00  0.1512395E+06  0.3281837E+01  0.3267725E-02  0.2364014E-03  0.6052798E+06  0.1306245E+02
  0.4000000E+00  0.1526441E+06  0.2409503E+02 -0.2235472E-01 -0.7058750E-03  0.6109502E+06  0.9596448E+02
  0.5000000E+00  0.1547005E+06  0.1119287E+03 -0.8466196E-01 -0.1000207E-01  0.6192599E+06  0.4461607E+03
  0.6000001E+00  0.1574898E+06  0.3883539E+03 -0.1145720E-01 -0.2650864E-02  0.6305737E+06  0.1549608E+04
  0.7000000E+00  0.1614464E+06  0.1099329E+04 -0.9059591E-01 -0.2548025E-01  0.6467088E+06  0.4391844E+04
  0.8000001E+00  0.1654393E+06  0.2670926E+04 -0.1241983E+00 -0.6469589E-01  0.6627512E+06  0.1068346E+05
  0.9000000E+00  0.1709994E+06  0.5762436E+04  0.6917861E-01  0.4125155E-01  0.6854282E+06  0.2308220E+05
  0.1000000E+01  0.1762619E+06  0.1125439E+05  0.8191705E-01  0.5592574E-01  0.7067130E+06  0.4514588E+05
  0.1100000E+01  0.1821303E+06  0.2016501E+05 -0.6063309E-01 -0.7490768E-01  0.7307949E+06  0.8101587E+05
  0.1200000E+01  0.1862857E+06  0.3346836E+05  0.5011757E-02  0.3215671E-02  0.7477966E+06  0.1346805E+06
  0.1300000E+01  0.1884702E+06  0.5157072E+05 -0.1778007E-01 -0.2002829E-01  0.7570416E+06  0.2078735E+06
  0.1400000E+01  0.1876991E+06  0.7411779E+05 -0.4736884E-01 -0.1329256E+00  0.7543888E+06  0.2992520E+06
  0.1500000E+01  0.1834051E+06  0.9964149E+05 -0.4440864E-01 -0.8025444E-01  0.7374339E+06  0.4029558E+06
  0.1600000E+01  0.1756036E+06  0.1259434E+06 -0.2362683E-01 -0.5048025E-01  0.7062141E+06  0.5101417E+06
  0.1700000E+01  0.1650569E+06  0.1506776E+06  0.1151723E-01 -0.2334821E-01  0.6637668E+06  0.6112936E+06
  0.1800000E+01  0.1528829E+06  0.1719842E+06 -0.2823015E-01 -0.2876770E-01  0.6145654E+06  0.6988008E+06
  0.1900000E+01  0.1402090E+06  0.1888748E+06 -0.3892635E-01 -0.4404497E-01  0.5631671E+06  0.7685506E+06
  0.2000000E+01  0.1279429E+06  0.2011233E+06  0.2049059E-01  0.2136052E-01  0.5132717E+06  0.8195246E+06
  0.2100000E+01  0.1166783E+06  0.2090462E+06  0.1304343E-01 -0.7603586E-01  0.4673184E+06  0.8529173E+06
  0.2200000E+01  0.1066826E+06  0.2133120E+06 -0.1514294E-01  0.2649915E-01  0.4264291E+06  0.8713897E+06
  0.2300000E+01  0.9805287E+05  0.2145798E+06  0.7499509E-02 -0.5698156E-01  0.3910294E+06  0.8775592E+06
  0.2400000E+01  0.9074697E+05  0.2134601E+06 -0.2005130E-01 -0.2666652E-01  0.3609707E+06  0.8738786E+06
  0.2500000E+01  0.8463818E+05  0.2106155E+06  0.7793141E-02  0.1568389E-01  0.3357601E+06  0.8630391E+06
  0.2600000E+01  0.7959985E+05  0.2063541E+06 -0.1276149E-01  0.9923398E-02  0.3149208E+06  0.8462995E+06
  0.2700000E+01  0.7548400E+05  0.2010480E+06  0.7608202E-03  0.9484053E-02  0.2978349E+06  0.8251416E+06
  0.2800000E+01  0.7217457E+05  0.1949135E+06  0.3052167E-01  0.8775473E-02  0.2840606E+06  0.8004889E+06
  0.2900000E+01  0.6954605E+05  0.1881457E+06  0.1007758E-01  0.9151757E-02  0.2730954E+06  0.7731612E+06
  0.3000000E+01  0.6751824E+05  0.1803978E+06  0.4292488E-02  0.1325077E-01  0.2646364E+06  0.7417460E+06
  0.3100000E+01  0.6605136E+05  0.1706635E+06  0.7023273E-02  0.3828496E-02  0.2585616E+06  0.7022066E+06
  0.3200000E+01  0.6540869E+05  0.1504561E+06  0.9122156E-02  0.8723974E-02  0.2562960E+06  0.6203181E+06
