VARIABLES="w (rad/s)"
"A   1   1" "B   1   1"
"A   1   2" "B   1   2"
"A   1   3" "B   1   3"
Zone t="Motion of body    1 in DoF   1",I=    32,F=POINT
  0.1000000E+00  0.9343217E+04  0.3022712E-04 -0.3635138E-03 -0.6779816E-06  0.4397138E+05  0.1481012E-03
  0.2000000E+00  0.9374833E+04  0.3668148E-02  0.3194362E-02  0.1879126E-04  0.4410201E+05  0.1821126E-01
  0.3000000E+00  0.9407373E+04  0.6184286E-01  0.3413359E-03  0.6965954E-05  0.4424091E+05  0.3071460E+00
  0.4000000E+00  0.9462279E+04  0.4554735E+00  0.6036460E-03  0.2735280E-04  0.4453978E+05  0.2264167E+01
  0.5000000E+00  0.9521459E+04  0.2123737E+01 -0.2956331E-02 -0.2824778E-03  0.4484252E+05  0.1056773E+02
  0.6000001E+00  0.9593554E+04  0.7398757E+01 -0.3803869E-02 -0.5665754E-03  0.4520047E+05  0.3686017E+02
  0.7000000E+00  0.9709259E+04  0.2105154E+02 -0.1947088E-01 -0.3940437E-02  0.4579984E+05  0.1050368E+03
  0.8000001E+00  0.9835404E+04  0.5149636E+02 -0.2288073E-02 -0.8066902E-03  0.4646019E+05  0.2573828E+03
  0.9000000E+00  0.9989945E+04  0.1120669E+03 -0.7570982E-02 -0.3397260E-02  0.4724597E+05  0.5611452E+03
  0.1000000E+01  0.1016810E+05  0.2216369E+03  0.4668832E-02  0.2304244E-02  0.4817884E+05  0.1112074E+04
  0.1100000E+01  0.1036655E+05  0.4048578E+03 -0.8243864E-03 -0.8760579E-03  0.4920048E+05  0.2035904E+04
  0.1200000E+01  0.1055546E+05  0.6894607E+03 -0.2461771E-02 -0.2151227E-02  0.5018621E+05  0.3474989E+04
  0.1300000E+01  0.1074612E+05  0.1102786E+04  0.3747849E-02  0.2784841E-02  0.5120093E+05  0.5572144E+04
  0.1400000E+01  0.1088872E+05  0.1667734E+04 -0.3245814E-02 -0.2661616E-02  0.5195767E+05  0.8449507E+04
  0.1500000E+01  0.1095959E+05  0.2391162E+04 -0.6822745E-03 -0.1056701E-02  0.5235836E+05  0.1214801E+05
  0.1600000E+01  0.1094930E+05  0.3260498E+04 -0.6040186E-03 -0.1783594E-02  0.5235787E+05  0.1661226E+05
  0.1700000E+01  0.1085165E+05  0.4240922E+04  0.5823023E-03  0.5249232E-03  0.5191317E+05  0.2167104E+05
  0.1800000E+01  0.1066181E+05  0.5281450E+04  0.1347065E-02  0.3195539E-02  0.5099367E+05  0.2706888E+05
  0.1900000E+01  0.1038553E+05  0.6325666E+04 -0.4307847E-03 -0.2777830E-02  0.4962359E+05  0.3251947E+05
  0.2000000E+01  0.1004393E+05  0.7317765E+04  0.2985239E-02  0.9769604E-02  0.4791085E+05  0.3773521E+05
  0.2100000E+01  0.9660493E+04  0.8215692E+04  0.4019056E-04 -0.7648766E-03  0.4597018E+05  0.4249741E+05
  0.2200000E+01  0.9256858E+04  0.8993501E+04 -0.1930378E-02 -0.5611897E-02  0.4391538E+05  0.4666538E+05
  0.2300000E+01  0.8853188E+04  0.9640134E+04  0.5887902E-04 -0.1439452E-02  0.4184657E+05  0.5017644E+05
  0.2400000E+01  0.8464645E+04  0.1015535E+05 -0.1985927E-02  0.9866655E-03  0.3984333E+05  0.5302435E+05
  0.2500000E+01  0.8099455E+04  0.1055144E+05 -0.8344650E-04 -0.5586445E-02  0.3795055E+05  0.5526422E+05
  0.2600000E+01  0.7764878E+04  0.1083618E+05  0.9415700E-03 -0.4978478E-03  0.3620600E+05  0.5693179E+05
  0.2700000E+01  0.7461595E+04  0.1102454E+05 -0.3877392E-03 -0.2443433E-02  0.3461579E+05  0.5809819E+05
  0.2800000E+01  0.7191340E+04  0.1113257E+05  0.2146619E-03  0.2407819E-02  0.3318838E+05  0.5884410E+05
  0.2900000E+01  0.6951337E+04  0.1117800E+05 -0.2380404E-02 -0.4420102E-02  0.3191600E+05  0.5926312E+05
  0.3000000E+01  0.6740695E+04  0.1116553E+05  0.5226135E-03  0.1511872E-02  0.3079082E+05  0.5937395E+05
  0.3100000E+01  0.6555275E+04  0.1110763E+05 -0.8292352E-03 -0.5699396E-02  0.2979394E+05  0.5923459E+05
  0.3200000E+01  0.6394869E+04  0.1101043E+05 -0.6233901E-03 -0.5736649E-03  0.2892552E+05  0.5888741E+05
Zone t="Motion of body    1 in DoF   2",I=    32,F=POINT
  0.1000000E+00  0.2306700E-03  0.8102506E-07  0.5652442E+05  0.4142751E+02 -0.1958013E-02 -0.2142508E-05
  0.2000000E+00  0.5340576E-03 -0.1478940E-05  0.5760493E+05  0.3256744E+03  0.4309416E-03  0.2093986E-04
  0.3000000E+00  0.1175801E-02 -0.1743436E-05  0.5862614E+05  0.1066590E+04  0.5007187E-02  0.8659810E-04
  0.4000000E+00 -0.5340576E-03 -0.3576279E-06  0.5930240E+05  0.2421054E+04 -0.2683401E-02 -0.1561642E-04
  0.5000000E+00 -0.5960464E-04  0.3600121E-04  0.5947980E+05  0.4466857E+04 -0.3046989E-03 -0.5125999E-04
  0.6000001E+00 -0.1615683E-02 -0.1364946E-04  0.5905934E+05  0.7193386E+04 -0.4833936E-02 -0.5044341E-03
  0.7000000E+00 -0.6207739E-02  0.7510185E-05  0.5801614E+05  0.1050961E+05 -0.2754586E-01 -0.4839897E-03
  0.8000001E+00  0.2430081E-02  0.3651381E-03  0.5642674E+05  0.1426412E+05  0.1249730E-01  0.1516461E-02
  0.9000000E+00 -0.1112090E-02  0.2639294E-03  0.5439238E+05  0.1827204E+05 -0.4279878E-02 -0.9788275E-03
  0.1000000E+01  0.4014969E-02  0.2722740E-03  0.5202458E+05  0.2235552E+05  0.2000713E-01  0.4242659E-02
  0.1100000E+01  0.1518943E-02  0.6251335E-03  0.4945558E+05  0.2634636E+05  0.5611073E-02  0.1681566E-02
  0.1200000E+01 -0.1231829E-04  0.6601810E-03  0.4682305E+05  0.3011052E+05  0.3390709E-02 -0.4026890E-03
  0.1300000E+01  0.2996005E-02  0.7426739E-03  0.4418361E+05  0.3357507E+05  0.1202767E-01  0.2423525E-02
  0.1400000E+01 -0.1355239E-02 -0.1716614E-04  0.4164322E+05  0.3664748E+05 -0.4129410E-02 -0.1675367E-02
  0.1500000E+01  0.1273791E-02  0.1459360E-02  0.3925061E+05  0.3930257E+05  0.4222552E-02  0.5187511E-02
  0.1600000E+01  0.6574392E-03 -0.4601479E-04  0.3702303E+05  0.4154879E+05  0.9834766E-03 -0.2991438E-02
  0.1700000E+01  0.1123653E-02  0.1000881E-02  0.3497429E+05  0.4339670E+05  0.5709984E-02  0.6222963E-02
  0.1800000E+01  0.1769861E-02  0.6489754E-03  0.3310943E+05  0.4486900E+05  0.7805030E-02  0.6026268E-02
  0.1900000E+01 -0.5084590E-03 -0.7929802E-03  0.3142738E+05  0.4600730E+05 -0.4440107E-02 -0.6046534E-02
  0.2000000E+01  0.2637386E-02  0.2682447E-02  0.2992274E+05  0.4683103E+05  0.1269841E-01  0.1397157E-01
  0.2100000E+01 -0.2152579E-03 -0.1333714E-02  0.2858722E+05  0.4737482E+05  0.6071727E-03 -0.1882315E-02
  0.2200000E+01 -0.1347282E-02 -0.2162933E-02  0.2740621E+05  0.4767124E+05 -0.5977804E-02 -0.1149630E-01
  0.2300000E+01 -0.2653703E-04  0.1458168E-02  0.2636926E+05  0.4775330E+05  0.3482362E-02  0.3987551E-02
  0.2400000E+01  0.1373688E-02  0.3928900E-02  0.2546369E+05  0.4764380E+05  0.9722710E-02  0.2055144E-01
  0.2500000E+01 -0.1764870E-02 -0.1933098E-02  0.2467821E+05  0.4738091E+05 -0.5522728E-02 -0.1169491E-01
  0.2600000E+01  0.1095808E-02  0.1996279E-02  0.2399599E+05  0.4696419E+05  0.3864398E-02  0.6398916E-02
  0.2700000E+01 -0.5215186E-03 -0.9737015E-03  0.2340341E+05  0.4641646E+05 -0.1977108E-02 -0.7173300E-02
  0.2800000E+01  0.1400198E-02  0.1878500E-02  0.2289275E+05  0.4574329E+05  0.8488213E-02  0.6234646E-02
  0.2900000E+01 -0.1186174E-02  0.9927750E-03  0.2246641E+05  0.4497244E+05 -0.3952486E-02 -0.1897812E-03
  0.3000000E+01 -0.2870560E-03  0.3753901E-02  0.2209940E+05  0.4403769E+05 -0.1770496E-02  0.1386309E-01
  0.3100000E+01 -0.8881477E-03 -0.9067059E-03  0.2178157E+05  0.4287839E+05 -0.3092981E-02 -0.3787279E-02
  0.3200000E+01 -0.1576543E-03 -0.4407048E-02  0.2149603E+05  0.4096629E+05  0.1048446E-02 -0.2687776E-01
Zone t="Motion of body    1 in DoF   3",I=    32,F=POINT
  0.1000000E+00  0.4386780E+05  0.1465226E-03  0.1246780E-02  0.7478224E-06  0.2147683E+06  0.7171613E-03
  0.2000000E+00  0.4399850E+05  0.1814689E-01  0.1737073E-01  0.8680435E-04  0.2153497E+06  0.9009812E-01
  0.3000000E+00  0.4413238E+05  0.3061168E+00  0.4983544E-02  0.6836668E-04  0.2158973E+06  0.1520313E+01
  0.4000000E+00  0.4443660E+05  0.2256371E+01  0.1842231E-02  0.5545316E-04  0.2175651E+06  0.1121642E+02
  0.5000000E+00  0.4473808E+05  0.1053144E+02 -0.2353263E-01 -0.1760309E-02  0.2191080E+06  0.5240436E+02
  0.6000001E+00  0.4508921E+05  0.3673772E+02 -0.2423684E-01 -0.3907656E-02  0.2208344E+06  0.1830246E+03
  0.7000000E+00  0.4568380E+05  0.1046874E+03 -0.1103384E+00 -0.2239068E-01  0.2239022E+06  0.5223395E+03
  0.8000001E+00  0.4634890E+05  0.2565031E+03 -0.5332529E-02 -0.6792760E-03  0.2274113E+06  0.1282021E+04
  0.9000000E+00  0.4712554E+05  0.5592997E+03 -0.3991498E-01 -0.1642428E-01  0.2313368E+06  0.2800545E+04
  0.1000000E+01  0.4806193E+05  0.1108280E+04  0.2837896E-01  0.1269940E-01  0.2362647E+06  0.5560827E+04
  0.1100000E+01  0.4907264E+05  0.2029272E+04  0.4057667E-02 -0.1710467E-02  0.2414412E+06  0.1020466E+05
  0.1200000E+01  0.5005950E+05  0.3463448E+04 -0.6424387E-02 -0.8916169E-02  0.2466109E+06  0.1745606E+05
  0.1300000E+01  0.5107077E+05  0.5553492E+04  0.1110664E-01  0.5769476E-02  0.2519898E+06  0.2806070E+05
  0.1400000E+01  0.5182033E+05  0.8423245E+04 -0.8633478E-02 -0.7810503E-02  0.2559431E+06  0.4267743E+05
  0.1500000E+01  0.5222245E+05  0.1211064E+05 -0.4206339E-02 -0.5108237E-02  0.2582108E+06  0.6152784E+05
  0.1600000E+01  0.5222436E+05  0.1656173E+05 -0.1223981E-02  0.2543807E-02  0.2584949E+06  0.8438349E+05
  0.1700000E+01  0.5178202E+05  0.2160634E+05  0.3058069E-02  0.2461791E-02  0.2565177E+06  0.1104076E+06
  0.1800000E+01  0.5086737E+05  0.2698979E+05  0.5513297E-02  0.1765400E-01  0.2521100E+06  0.1383282E+06
  0.1900000E+01  0.4950044E+05  0.3242678E+05  0.3352165E-02 -0.9194374E-02  0.2453467E+06  0.1666990E+06
  0.2000000E+01  0.4779312E+05  0.3762823E+05  0.1291943E-01  0.5384815E-01  0.2368064E+06  0.1940311E+06
  0.2100000E+01  0.4585847E+05  0.4237905E+05  0.1965705E-02  0.4836679E-02  0.2270299E+06  0.2192073E+06
  0.2200000E+01  0.4380934E+05  0.4653504E+05 -0.7159926E-02 -0.2353203E-01  0.2166132E+06  0.2414513E+06
  0.2300000E+01  0.4174609E+05  0.5003584E+05  0.3442557E-02  0.6385088E-02  0.2060543E+06  0.2604218E+06
  0.2400000E+01  0.3974804E+05  0.5287727E+05 -0.7513960E-02  0.1875055E-01  0.1957628E+06  0.2760712E+06
  0.2500000E+01  0.3785844E+05  0.5511030E+05 -0.6010056E-03 -0.3316426E-01  0.1859807E+06  0.2886237E+06
  0.2600000E+01  0.3611794E+05  0.5677431E+05  0.4672271E-02 -0.3643155E-02  0.1769157E+06  0.2982537E+06
  0.2700000E+01  0.3453218E+05  0.5793602E+05 -0.3397200E-02 -0.2080297E-01  0.1686141E+06  0.3052795E+06
  0.2800000E+01  0.3310921E+05  0.5868265E+05  0.2190385E-02  0.1392460E-01  0.1611122E+06  0.3101354E+06
  0.2900000E+01  0.3183644E+05  0.5909966E+05 -0.3512810E-02 -0.1166654E-01  0.1543736E+06  0.3132783E+06
  0.3000000E+01  0.3071176E+05  0.5921221E+05  0.1800537E-02  0.8405805E-02  0.1483774E+06  0.3147995E+06
  0.3100000E+01  0.2971594E+05  0.5907232E+05 -0.1127182E-02 -0.1938355E-01  0.1430375E+06  0.3149544E+06
  0.3200000E+01  0.2884698E+05  0.5873098E+05 -0.8662045E-03 -0.2346635E-02  0.1383453E+06  0.3140321E+06
