VARIABLES="w (rad/s)"
"A   1   1" "B   1   1"
"A   1   2" "B   1   2"
"A   1   3" "B   1   3"
Zone t="Motion of body    1 in DoF   1",I=    32,F=POINT
  0.1000000E+00  0.6984812E+05  0.1084504E-02 -0.3344342E-02 -0.5055701E-06  0.1931140E+06  0.3051411E-02
  0.2000000E+00  0.7048052E+05  0.1366600E+00 -0.5281642E-02 -0.5127089E-04  0.1948897E+06  0.3828095E+00
  0.3000000E+00  0.7102923E+05  0.2301172E+01 -0.1615931E-01 -0.5967906E-03  0.1963952E+06  0.6444486E+01
  0.4000000E+00  0.7209578E+05  0.1691008E+02  0.8494630E-02  0.5104626E-03  0.1993133E+06  0.4734389E+02
  0.5000000E+00  0.7338945E+05  0.7860294E+02 -0.1550055E-01 -0.1661698E-02  0.2028355E+06  0.2199790E+03
  0.6000001E+00  0.7502773E+05  0.2730357E+03 -0.2759993E-02 -0.1875218E-04  0.2073208E+06  0.7637477E+03
  0.7000000E+00  0.7751029E+05  0.7757292E+03 -0.2855275E-01 -0.1060805E-01  0.2141365E+06  0.2168502E+04
  0.8000001E+00  0.8037436E+05  0.1894454E+04 -0.3593310E-01 -0.1376084E-01  0.2219580E+06  0.5291284E+04
  0.9000000E+00  0.8368545E+05  0.4114360E+04 -0.1140568E-01 -0.6301867E-02  0.2310084E+06  0.1147959E+05
  0.1000000E+01  0.8739934E+05  0.8098497E+04  0.1846719E-01  0.1896071E-01  0.2410904E+06  0.2256638E+05
  0.1100000E+01  0.9090100E+05  0.1464175E+05 -0.1463565E-02 -0.3838912E-03  0.2505282E+06  0.4073230E+05
  0.1200000E+01  0.9311719E+05  0.2441655E+05  0.1243850E-02 -0.8925676E-02  0.2563079E+06  0.6779938E+05
  0.1300000E+01  0.9362448E+05  0.3763877E+05 -0.2209361E-01 -0.5252875E-01  0.2573199E+06  0.1042855E+06
  0.1400000E+01  0.9145948E+05  0.5363864E+05 -0.1211984E-01 -0.5429417E-01  0.2508312E+06  0.1482268E+06
  0.1500000E+01  0.8632516E+05  0.7079146E+05  0.2594074E-02 -0.1104516E-01  0.2361128E+06  0.1950150E+06
  0.1600000E+01  0.7862683E+05  0.8685016E+05  0.7655621E-02 -0.8313030E-02  0.2144240E+06  0.2384233E+06
  0.1700000E+01  0.6942459E+05  0.9993048E+05 -0.2628705E-02  0.3231317E-02  0.1887179E+06  0.2732394E+06
  0.1800000E+01  0.5989302E+05  0.1089877E+06  0.3416406E-02 -0.7304996E-02  0.1622916E+06  0.2966825E+06
  0.1900000E+01  0.5096193E+05  0.1139691E+06 -0.1398325E-02 -0.1815215E-01  0.1376971E+06  0.3086703E+06
  0.2000000E+01  0.4319084E+05  0.1153729E+06  0.9526670E-02 -0.1858664E-01  0.1164812E+06  0.3107333E+06
  0.2100000E+01  0.3677423E+05  0.1140228E+06 -0.3718592E-02 -0.1617834E-01  0.9912862E+05  0.3052264E+06
  0.2200000E+01  0.3166528E+05  0.1107042E+06  0.5739981E-02 -0.1182938E-01  0.8548117E+05  0.2943379E+06
  0.2300000E+01  0.2773976E+05  0.1060690E+06  0.4726908E-04  0.1370981E-02  0.7516479E+05  0.2799243E+06
  0.2400000E+01  0.2481581E+05  0.1006170E+06  0.2577503E-02 -0.4840642E-03  0.6764453E+05  0.2634058E+06
  0.2500000E+01  0.2271002E+05  0.9471262E+05  0.1321907E-01  0.1797597E-01  0.6240932E+05  0.2458005E+06
  0.2600000E+01  0.2126801E+05  0.8861216E+05  0.5649145E-02 -0.4866064E-02  0.5901096E+05  0.2278154E+06
  0.2700000E+01  0.2036125E+05  0.8252920E+05  0.4245264E-02 -0.5305246E-02  0.5706755E+05  0.2100480E+06
  0.2800000E+01  0.1987207E+05  0.7655422E+05  0.6753206E-03 -0.2426617E-03  0.5625001E+05  0.1926972E+06
  0.2900000E+01  0.1970218E+05  0.7082098E+05  0.2047358E-02 -0.5242713E-03  0.5627735E+05  0.1761072E+06
  0.3000000E+01  0.1984332E+05  0.6525955E+05 -0.1584768E-02 -0.7138274E-03  0.5708019E+05  0.1598431E+06
  0.3100000E+01  0.2096271E+05  0.5848743E+05  0.3556667E-02 -0.1067799E-01  0.5992197E+05  0.1365276E+06
  0.3200000E+01  0.1971691E+05  0.5622743E+05 -0.4288852E-02 -0.5862549E-02  0.5797863E+05  0.1376856E+06
Zone t="Motion of body    1 in DoF   2",I=    32,F=POINT
  0.1000000E+00 -0.4703999E-02  0.1635402E-05  0.1042208E+06  0.1128699E+03 -0.1097202E-01 -0.4000030E-05
  0.2000000E+00 -0.2369285E-02  0.7845461E-05  0.1066975E+06  0.8752592E+03 -0.5155802E-02 -0.1674145E-04
  0.3000000E+00  0.5822976E-02 -0.9463727E-04  0.1081416E+06  0.2801228E+04  0.1491785E-01 -0.4992485E-03
  0.4000000E+00 -0.3609657E-02  0.1800954E-03  0.1081848E+06  0.6155558E+04 -0.1269460E-01 -0.1214147E-03
  0.5000000E+00 -0.3478050E-02  0.2894998E-03  0.1064864E+06  0.1089601E+05 -0.1189518E-01 -0.2610683E-04
  0.6000001E+00 -0.4106362E-02 -0.1094341E-03  0.1030391E+06  0.1669529E+05 -0.1927376E-01 -0.1992702E-02
  0.7000000E+00  0.4315376E-02 -0.2372265E-04  0.9815031E+05  0.2303188E+05  0.5940029E-02 -0.5404949E-03
  0.8000001E+00 -0.2460122E-01  0.3128052E-03  0.9225014E+05  0.2931909E+05 -0.7243931E-01 -0.2231598E-02
  0.9000000E+00 -0.1054340E-02  0.1175642E-02  0.8583942E+05  0.3500746E+05 -0.6234911E-02  0.2908707E-02
  0.1000000E+01  0.8770943E-02  0.8366108E-03  0.7938330E+05  0.3967716E+05  0.2552795E-01  0.1850128E-02
  0.1100000E+01  0.2652948E-02  0.1387119E-02  0.7324867E+05  0.4304705E+05  0.9840185E-02  0.2997875E-02
  0.1200000E+01  0.1126846E-01  0.2831221E-02  0.6770359E+05  0.4501494E+05  0.2856016E-01  0.6042004E-02
  0.1300000E+01 -0.1959067E-01 -0.6547213E-02  0.6291819E+05  0.4559276E+05 -0.6184652E-01 -0.2010465E-01
  0.1400000E+01 -0.7126672E-02 -0.1144171E-02  0.5896535E+05  0.4488091E+05 -0.2214704E-01 -0.5521059E-02
  0.1500000E+01  0.5925814E-02  0.1445055E-02  0.5587779E+05  0.4304915E+05  0.1299095E-01  0.6882668E-02
  0.1600000E+01  0.1180470E-01  0.9834647E-02  0.5359930E+05  0.4031964E+05  0.2845526E-01  0.2945209E-01
  0.1700000E+01 -0.4207106E-02 -0.4970193E-02  0.5207736E+05  0.3692107E+05 -0.1766205E-01 -0.2110052E-01
  0.1800000E+01  0.7364485E-03  0.4424453E-02  0.5119959E+05  0.3309307E+05  0.1145469E-02  0.1122808E-01
  0.1900000E+01 -0.2056423E-02  0.4386663E-02  0.5088441E+05  0.2904223E+05 -0.1124784E-01  0.9347558E-02
  0.2000000E+01 -0.5102158E-04 -0.7872581E-03  0.5099764E+05  0.2497837E+05 -0.4063606E-02 -0.1668692E-02
  0.2100000E+01 -0.5326952E-02 -0.1170015E-01  0.5143695E+05  0.2103409E+05 -0.2073152E-01 -0.3422320E-01
  0.2200000E+01  0.3775250E-02  0.1576245E-02  0.5211035E+05  0.1731811E+05  0.8226741E-02  0.1896918E-02
  0.2300000E+01  0.3633084E-02  0.4020363E-02  0.5292238E+05  0.1384721E+05  0.6769844E-02  0.1288909E-01
  0.2400000E+01  0.1336336E-02  0.6835133E-02  0.5376010E+05  0.1042635E+05 -0.5661646E-02  0.2060133E-01
  0.2500000E+01  0.4241943E-03  0.9286612E-02  0.5361452E+05  0.3776744E+04 -0.4970551E-02  0.2829704E-01
  0.2600000E+01  0.1364304E-01 -0.1182023E-01  0.5605143E+05  0.8970462E+04  0.3219091E-01 -0.3281748E-01
  0.2700000E+01  0.5376250E-02  0.4582271E-02  0.5684262E+05  0.5944968E+04  0.1178671E-01  0.1020515E-01
  0.2800000E+01  0.2075945E-02 -0.4645020E-02  0.5766882E+05  0.4026114E+04  0.1490457E-02 -0.1023394E-01
  0.2900000E+01  0.7754358E-03  0.7040277E-02  0.5847833E+05  0.2542614E+04 -0.1541006E-02  0.1874350E-01
  0.3000000E+01 -0.1530329E-02  0.4121531E-02  0.5925718E+05  0.1391823E+04 -0.7925670E-02  0.1276197E-01
  0.3100000E+01  0.2562615E-03 -0.1206283E-02  0.5999860E+05  0.5478387E+03 -0.1134565E-02 -0.3522527E-02
  0.3200000E+01 -0.2568960E-03 -0.1478188E-02  0.6067607E+05 -0.3597916E+02 -0.3853440E-02 -0.2389139E-02
Zone t="Motion of body    1 in DoF   3",I=    32,F=POINT
  0.1000000E+00  0.1931410E+06  0.3051632E-02  0.4054643E-02  0.3431722E-05  0.5525967E+06  0.8590672E-02
  0.2000000E+00  0.1949267E+06  0.3828029E+00 -0.2475027E-02 -0.6819824E-04  0.5576647E+06  0.1072281E+01
  0.3000000E+00  0.1964381E+06  0.6444041E+01 -0.2417701E-01 -0.9416976E-03  0.5618076E+06  0.1804673E+02
  0.4000000E+00  0.1993496E+06  0.4734108E+02 -0.3591944E-02  0.5692299E-04  0.5697598E+06  0.1325427E+03
  0.5000000E+00  0.2028687E+06  0.2199720E+03 -0.4099926E-01 -0.5579035E-02  0.5793636E+06  0.6156160E+03
  0.6000001E+00  0.2073615E+06  0.7637126E+03 -0.5187069E-02 -0.7207007E-03  0.5916749E+06  0.2136290E+04
  0.7000000E+00  0.2141781E+06  0.2168424E+04 -0.4168012E-01 -0.1659425E-01  0.6103818E+06  0.6061692E+04
  0.8000001E+00  0.2220022E+06  0.5291258E+04 -0.1546226E+00 -0.6637180E-01  0.6317875E+06  0.1477871E+05
  0.9000000E+00  0.2310646E+06  0.1147933E+05 -0.2091573E-01 -0.1970455E-01  0.6565581E+06  0.3202875E+05
  0.1000000E+01  0.2411471E+06  0.2256716E+05  0.6308323E-01  0.5491774E-01  0.6839617E+06  0.6288339E+05
  0.1100000E+01  0.2506035E+06  0.4073615E+05 -0.5890023E-04  0.1425639E-01  0.7094512E+06  0.1133254E+06
  0.1200000E+01  0.2563794E+06  0.6780134E+05  0.1012862E-01 -0.2432656E-01  0.7245162E+06  0.1882694E+06
  0.1300000E+01  0.2574048E+06  0.1042798E+06 -0.7505137E-01 -0.1538715E+00  0.7263117E+06  0.2889285E+06
  0.1400000E+01  0.2509241E+06  0.1482245E+06 -0.3902470E-01 -0.1142421E+00  0.7070538E+06  0.4096099E+06
  0.1500000E+01  0.2362110E+06  0.1950241E+06  0.3918251E-02 -0.2450228E-01  0.6650266E+06  0.5372492E+06
  0.1600000E+01  0.2145341E+06  0.2384440E+06  0.2198290E-01 -0.9382963E-03  0.6040312E+06  0.6545838E+06
  0.1700000E+01  0.1888369E+06  0.2732884E+06 -0.2042459E-01 -0.1048279E-01  0.5323569E+06  0.7472528E+06
  0.1800000E+01  0.1624187E+06  0.2967598E+06  0.2073662E-02 -0.1786757E-01  0.4591959E+06  0.8078278E+06
  0.1900000E+01  0.1378180E+06  0.3087920E+06 -0.1989542E-01 -0.3065205E-01  0.3915738E+06  0.8363166E+06
  0.2000000E+01  0.1166051E+06  0.3109088E+06  0.7368147E-02 -0.5417001E-01  0.3337714E+06  0.8373749E+06
  0.2100000E+01  0.9925202E+05  0.3054474E+06 -0.2094326E-01 -0.5749607E-01  0.2869296E+06  0.8176272E+06
  0.2200000E+01  0.8559660E+05  0.2946156E+06  0.1870375E-01 -0.3117031E-01  0.2505741E+06  0.7832978E+06
  0.2300000E+01  0.7526806E+05  0.2802638E+06  0.9715402E-02  0.5632281E-02  0.2235742E+06  0.7396525E+06
  0.2400000E+01  0.6773461E+05  0.2637982E+06 -0.9854063E-02 -0.9879887E-02  0.2043433E+06  0.6905659E+06
  0.2500000E+01  0.6248979E+05  0.2462605E+06  0.2730262E-01  0.3490853E-01  0.1914798E+06  0.6390593E+06
  0.2600000E+01  0.5908203E+05  0.2283479E+06  0.1220841E-01 -0.1458204E-01  0.1836718E+06  0.5870721E+06
  0.2700000E+01  0.5712672E+05  0.2106759E+06  0.8779367E-02 -0.8949563E-02  0.1797879E+06  0.5362333E+06
  0.2800000E+01  0.5630814E+05  0.1934675E+06 -0.6049808E-02 -0.1683444E-02  0.1789586E+06  0.4869838E+06
  0.2900000E+01  0.5633147E+05  0.1770646E+06  0.6916153E-02 -0.2987087E-03  0.1803243E+06  0.4403175E+06
  0.3000000E+01  0.5714997E+05  0.1612688E+06  0.1616081E-03  0.6911829E-02  0.1836254E+06  0.3950431E+06
  0.3100000E+01  0.6032986E+05  0.1423390E+06  0.6092479E-02 -0.9998798E-02  0.1916005E+06  0.3322180E+06
  0.3200000E+01  0.5787487E+05  0.1359118E+06 -0.5476791E-02 -0.9486884E-02  0.1888637E+06  0.3328266E+06
