VARIABLES="X" "Y" "Z" "NX" "NY" "NZ" "A"
 ZONE N=        2352 , E=         588  , F=FEPOINT,ET=QUADRILATERAL
   0.1442713E+00   0.9262500E-02  -0.1000000E-02   0.0000000E+00   0.0000000E+00   0.0000000E+00   0.0000000E+00
   0.1445109E+00   0.9277900E-02   0.0000000E+00   0.0000000E+00   0.0000000E+00   0.0000000E+00   0.0000000E+00
   0.1445683E+00   0.0000000E+00  -0.1000000E-02   0.0000000E+00   0.0000000E+00   0.0000000E+00   0.0000000E+00
   0.1448084E+00   0.0000000E+00   0.0000000E+00   0.0000000E+00   0.0000000E+00   0.0000000E+00   0.0000000E+00
   0.1433814E+00   0.1848700E-01  -0.1000000E-02   0.0000000E+00   0.0000000E+00   0.0000000E+00   0.0000000E+00
   0.1436195E+00   0.1851770E-01   0.0000000E+00   0.0000000E+00   0.0000000E+00   0.0000000E+00   0.0000000E+00
   0.1442713E+00   0.9262500E-02  -0.1000000E-02   0.0000000E+00   0.0000000E+00   0.0000000E+00   0.0000000E+00
   0.1445109E+00   0.9277900E-02   0.0000000E+00   0.0000000E+00   0.0000000E+00   0.0000000E+00   0.0000000E+00
   0.1419024E+00   0.2763550E-01  -0.1000000E-02   0.0000000E+00   0.0000000E+00   0.0000000E+00   0.0000000E+00
   0.1421381E+00   0.2768140E-01   0.0000000E+00   0.0000000E+00   0.0000000E+00   0.0000000E+00   0.0000000E+00
   0.1433814E+00   0.1848700E-01  -0.1000000E-02   0.0000000E+00   0.0000000E+00   0.0000000E+00   0.0000000E+00
   0.1436195E+00   0.1851770E-01   0.0000000E+00   0.0000000E+00   0.0000000E+00   0.0000000E+00   0.0000000E+00
   0.1398402E+00   0.3667040E-01  -0.1000000E-02   0.0000000E+00   0.0000000E+00   0.0000000E+00   0.0000000E+00
   0.1400725E+00   0.3673130E-01   0.0000000E+00   0.0000000E+00   0.0000000E+00   0.0000000E+00   0.0000000E+00
   0.1419024E+00   0.2763550E-01  -0.1000000E-02   0.0000000E+00   0.0000000E+00   0.0000000E+00   0.0000000E+00
   0.1421381E+00   0.2768140E-01   0.0000000E+00   0.0000000E+00   0.0000000E+00   0.0000000E+00   0.0000000E+00
   0.1372034E+00   0.4555470E-01  -0.1000000E-02   0.0000000E+00   0.0000000E+00   0.0000000E+00   0.0000000E+00
   0.1374313E+00   0.4563030E-01   0.0000000E+00   0.0000000E+00   0.0000000E+00   0.0000000E+00   0.0000000E+00
   0.1398402E+00   0.3667040E-01  -0.1000000E-02   0.0000000E+00   0.0000000E+00   0.0000000E+00   0.0000000E+00
   0.1400725E+00   0.3673130E-01   0.0000000E+00   0.0000000E+00   0.0000000E+00   0.0000000E+00   0.0000000E+00
   0.1340028E+00   0.5425170E-01  -0.1000000E-02   0.0000000E+00   0.0000000E+00   0.0000000E+00   0.0000000E+00
   0.1342254E+00   0.5434180E-01   0.0000000E+00   0.0000000E+00   0.0000000E+00   0.0000000E+00   0.0000000E+00
   0.1372034E+00   0.4555470E-01  -0.1000000E-02   0.0000000E+00   0.0000000E+00   0.0000000E+00   0.0000000E+00
   0.1374313E+00   0.4563030E-01   0.0000000E+00   0.0000000E+00   0.0000000E+00   0.0000000E+00   0.0000000E+00
   0.1302516E+00   0.6272580E-01  -0.1000000E-02   0.0000000E+00   0.0000000E+00   0.0000000E+00   0.0000000E+00
   0.1304679E+00   0.6283000E-01   0.0000000E+00   0.0000000E+00   0.0000000E+00   0.0000000E+00   0.0000000E+00
   0.1340028E+00   0.5425170E-01  -0.1000000E-02   0.0000000E+00   0.0000000E+00   0.0000000E+00   0.0000000E+00
   0.1342254E+00   0.5434180E-01   0.0000000E+00   0.0000000E+00   0.0000000E+00   0.0000000E+00   0.0000000E+00
   0.1259651E+00   0.7094220E-01  -0.1000000E-02   0.0000000E+00   0.0000000E+00   0.0000000E+00   0.0000000E+00
   0.1261743E+00   0.7106000E-01   0.0000000E+00   0.0000000E+00   0.0000000E+00   0.0000000E+00   0.0000000E+00
   0.1302516E+00   0.6272580E-01  -0.1000000E-02   0.0000000E+00   0.0000000E+00   0.0000000E+00   0.0000000E+00
   0.1304679E+00   0.6283000E-01   0.0000000E+00   0.0000000E+00   0.0000000E+00   0.0000000E+00   0.0000000E+00
   0.1211610E+00   0.7886710E-01  -0.1000000E-02   0.0000000E+00   0.0000000E+00   0.0000000E+00   0.0000000E+00
   0.1213622E+00   0.7899810E-01   0.0000000E+00   0.0000000E+00   0.0000000E+00   0.0000000E+00   0.0000000E+00
   0.1259651E+00   0.7094220E-01  -0.1000000E-02   0.0000000E+00   0.0000000E+00   0.0000000E+00   0.0000000E+00
   0.1261743E+00   0.7106000E-01   0.0000000E+00   0.0000000E+00   0.0000000E+00   0.0000000E+00   0.0000000E+00
   0.1158590E+00   0.8646780E-01  -0.1000000E-02   0.0000000E+00   0.0000000E+00   0.0000000E+00   0.0000000E+00
   0.1160514E+00   0.8661140E-01   0.0000000E+00   0.0000000E+00   0.0000000E+00   0.0000000E+00   0.0000000E+00
   0.1211610E+00   0.7886710E-01  -0.1000000E-02   0.0000000E+00   0.0000000E+00   0.0000000E+00   0.0000000E+00
   0.1213622E+00   0.7899810E-01   0.0000000E+00   0.0000000E+00   0.0000000E+00   0.0000000E+00   0.0000000E+00
   0.1100810E+00   0.9371330E-01  -0.1000000E-02   0.0000000E+00   0.0000000E+00   0.0000000E+00   0.0000000E+00
   0.1102638E+00   0.9386890E-01   0.0000000E+00   0.0000000E+00   0.0000000E+00   0.0000000E+00   0.0000000E+00
   0.1158590E+00   0.8646780E-01  -0.1000000E-02   0.0000000E+00   0.0000000E+00   0.0000000E+00   0.0000000E+00
   0.1160514E+00   0.8661140E-01   0.0000000E+00   0.0000000E+00   0.0000000E+00   0.0000000E+00   0.0000000E+00
   0.1038506E+00   0.1005737E+00  -0.1000000E-02   0.0000000E+00   0.0000000E+00   0.0000000E+00   0.0000000E+00
   0.1040231E+00   0.1007407E+00   0.0000000E+00   0.0000000E+00   0.0000000E+00   0.0000000E+00   0.0000000E+00
   0.1100810E+00   0.9371330E-01  -0.1000000E-02   0.0000000E+00   0.0000000E+00   0.0000000E+00   0.0000000E+00
   0.1102638E+00   0.9386890E-01   0.0000000E+00   0.0000000E+00   0.0000000E+00   0.0000000E+00   0.0000000E+00
   0.9719340E-01   0.1070207E+00  -0.1000000E-02   0.0000000E+00   0.0000000E+00   0.0000000E+00   0.0000000E+00
   0.9735480E-01   0.1071984E+00   0.0000000E+00   0.0000000E+00   0.0000000E+00   0.0000000E+00   0.0000000E+00
   0.1038506E+00   0.1005737E+00  -0.1000000E-02   0.0000000E+00   0.0000000E+00   0.0000000E+00   0.0000000E+00
   0.1040231E+00   0.1007407E+00   0.0000000E+00   0.0000000E+00   0.0000000E+00   0.0000000E+00   0.0000000E+00
   0.9013690E-01   0.1130281E+00  -0.1000000E-02   0.0000000E+00   0.0000000E+00   0.0000000E+00   0.0000000E+00
   0.9028660E-01   0.1132158E+00   0.0000000E+00   0.0000000E+00   0.0000000E+00   0.0000000E+00   0.0000000E+00
   0.9719340E-01   0.1070207E+00  -0.1000000E-02   0.0000000E+00   0.0000000E+00   0.0000000E+00   0.0000000E+00
   0.9735480E-01   0.1071984E+00   0.0000000E+00   0.0000000E+00   0.0000000E+00   0.0000000E+00   0.0000000E+00
   0.8271000E-01   0.1185709E+00  -0.1000000E-02   0.0000000E+00   0.0000000E+00   0.0000000E+00   0.0000000E+00
   0.8284730E-01   0.1187678E+00   0.0000000E+00   0.0000000E+00   0.0000000E+00   0.0000000E+00   0.0000000E+00
   0.9013690E-01   0.1130281E+00  -0.1000000E-02   0.0000000E+00   0.0000000E+00   0.0000000E+00   0.0000000E+00
   0.9028660E-01   0.1132158E+00   0.0000000E+00   0.0000000E+00   0.0000000E+00   0.0000000E+00   0.0000000E+00
   0.7494310E-01   0.1236266E+00  -0.1000000E-02   0.0000000E+00   0.0000000E+00   0.0000000E+00   0.0000000E+00
   0.7506760E-01   0.1238319E+00   0.0000000E+00   0.0000000E+00   0.0000000E+00   0.0000000E+00   0.0000000E+00
   0.8271000E-01   0.1185709E+00  -0.1000000E-02   0.0000000E+00   0.0000000E+00   0.0000000E+00   0.0000000E+00
   0.8284730E-01   0.1187678E+00   0.0000000E+00   0.0000000E+00   0.0000000E+00   0.0000000E+00   0.0000000E+00
   0.6686840E-01   0.1281742E+00  -0.1000000E-02   0.0000000E+00   0.0000000E+00   0.0000000E+00   0.0000000E+00
   0.6697940E-01   0.1283871E+00   0.0000000E+00   0.0000000E+00   0.0000000E+00   0.0000000E+00   0.0000000E+00
   0.7494310E-01   0.1236266E+00  -0.1000000E-02   0.0000000E+00   0.0000000E+00   0.0000000E+00   0.0000000E+00
   0.7506760E-01   0.1238319E+00   0.0000000E+00   0.0000000E+00   0.0000000E+00   0.0000000E+00   0.0000000E+00
   0.5851880E-01   0.1321951E+00  -0.1000000E-02   0.0000000E+00   0.0000000E+00   0.0000000E+00   0.0000000E+00
   0.5861600E-01   0.1324147E+00   0.0000000E+00   0.0000000E+00   0.0000000E+00   0.0000000E+00   0.0000000E+00
   0.6686840E-01   0.1281742E+00  -0.1000000E-02   0.0000000E+00   0.0000000E+00   0.0000000E+00   0.0000000E+00
   0.6697940E-01   0.1283871E+00   0.0000000E+00   0.0000000E+00   0.0000000E+00   0.0000000E+00   0.0000000E+00
   0.4992890E-01   0.1356728E+00  -0.1000000E-02   0.0000000E+00   0.0000000E+00   0.0000000E+00   0.0000000E+00
   0.5001180E-01   0.1358981E+00   0.0000000E+00   0.0000000E+00   0.0000000E+00   0.0000000E+00   0.0000000E+00
   0.5851880E-01   0.1321951E+00  -0.1000000E-02   0.0000000E+00   0.0000000E+00   0.0000000E+00   0.0000000E+00
   0.5861600E-01   0.1324147E+00   0.0000000E+00   0.0000000E+00   0.0000000E+00   0.0000000E+00   0.0000000E+00
   0.4113370E-01   0.1385930E+00  -0.1000000E-02   0.0000000E+00   0.0000000E+00   0.0000000E+00   0.0000000E+00
   0.4120200E-01   0.1388232E+00   0.0000000E+00   0.0000000E+00   0.0000000E+00   0.0000000E+00   0.0000000E+00
   0.4992890E-01   0.1356728E+00  -0.1000000E-02   0.0000000E+00   0.0000000E+00   0.0000000E+00   0.0000000E+00
   0.5001180E-01   0.1358981E+00   0.0000000E+00   0.0000000E+00   0.0000000E+00   0.0000000E+00   0.0000000E+00
   0.3216950E-01   0.1409437E+00  -0.1000000E-02   0.0000000E+00   0.0000000E+00   0.0000000E+00   0.0000000E+00
   0.3222290E-01   0.1411778E+00   0.0000000E+00   0.0000000E+00   0.0000000E+00   0.0000000E+00   0.0000000E+00
   0.4113370E-01   0.1385930E+00  -0.1000000E-02   0.0000000E+00   0.0000000E+00   0.0000000E+00   0.0000000E+00
   0.4120200E-01   0.1388232E+00   0.0000000E+00   0.0000000E+00   0.0000000E+00   0.0000000E+00   0.0000000E+00
   0.2307310E-01   0.1427152E+00  -0.1000000E-02   0.0000000E+00   0.0000000E+00   0.0000000E+00   0.0000000E+00
   0.2311140E-01   0.1429522E+00   0.0000000E+00   0.0000000E+00   0.0000000E+00   0.0000000E+00   0.0000000E+00
   0.3216950E-01   0.1409437E+00  -0.1000000E-02   0.0000000E+00   0.0000000E+00   0.0000000E+00   0.0000000E+00
   0.3222290E-01   0.1411778E+00   0.0000000E+00   0.0000000E+00   0.0000000E+00   0.0000000E+00   0.0000000E+00
   0.1388190E-01   0.1439003E+00  -0.1000000E-02   0.0000000E+00   0.0000000E+00   0.0000000E+00   0.0000000E+00
   0.1390490E-01   0.1441393E+00   0.0000000E+00   0.0000000E+00   0.0000000E+00   0.0000000E+00   0.0000000E+00
   0.2307310E-01   0.1427152E+00  -0.1000000E-02   0.0000000E+00   0.0000000E+00   0.0000000E+00   0.0000000E+00
   0.2311140E-01   0.1429522E+00   0.0000000E+00   0.0000000E+00   0.0000000E+00   0.0000000E+00   0.0000000E+00
   0.4633600E-02   0.1444940E+00  -0.1000000E-02   0.0000000E+00   0.0000000E+00   0.0000000E+00   0.0000000E+00
   0.4641300E-02   0.1447340E+00   0.0000000E+00   0.0000000E+00   0.0000000E+00   0.0000000E+00   0.0000000E+00
   0.1388190E-01   0.1439003E+00  -0.1000000E-02   0.0000000E+00   0.0000000E+00   0.0000000E+00   0.0000000E+00
   0.1390490E-01   0.1441393E+00   0.0000000E+00   0.0000000E+00   0.0000000E+00   0.0000000E+00   0.0000000E+00
  -0.4633600E-02   0.1444940E+00  -0.1000000E-02   0.0000000E+00   0.0000000E+00   0.0000000E+00   0.0000000E+00
  -0.4641300E-02   0.1447340E+00   0.0000000E+00   0.0000000E+00   0.0000000E+00   0.0000000E+00   0.0000000E+00
   0.4633600E-02   0.1444940E+00  -0.1000000E-02   0.0000000E+00   0.0000000E+00   0.0000000E+00   0.0000000E+00
   0.4641300E-02   0.1447340E+00   0.0000000E+00   0.0000000E+00   0.0000000E+00   0.0000000E+00   0.0000000E+00
  -0.1388190E-01   0.1439003E+00  -0.1000000E-02   0.0000000E+00   0.0000000E+00   0.0000000E+00   0.0000000E+00
  -0.1390490E-01   0.1441393E+00   0.0000000E+00   0.0000000E+00   0.0000000E+00   0.0000000E+00   0.0000000E+00
  -0.4633600E-02   0.1444940E+00  -0.1000000E-02   0.0000000E+00   0.0000000E+00   0.0000000E+00   0.0000000E+00
  -0.4641300E-02   0.1447340E+00   0.0000000E+00   0.0000000E+00   0.0000000E+00   0.0000000E+00   0.0000000E+00
  -0.2307310E-01   0.1427152E+00  -0.1000000E-02   0.0000000E+00   0.0000000E+00   0.0000000E+00   0.0000000E+00
  -0.2311140E-01   0.1429522E+00   0.0000000E+00   0.0000000E+00   0.0000000E+00   0.0000000E+00   0.0000000E+00
  -0.1388190E-01   0.1439003E+00  -0.1000000E-02   0.0000000E+00   0.0000000E+00   0.0000000E+00   0.0000000E+00
  -0.1390490E-01   0.1441393E+00   0.0000000E+00   0.0000000E+00   0.0000000E+00   0.0000000E+00   0.0000000E+00
  -0.3216950E-01   0.1409437E+00  -0.1000000E-02   0.0000000E+00   0.0000000E+00   0.0000000E+00   0.0000000E+00
  -0.3222290E-01   0.1411778E+00   0.0000000E+00   0.0000000E+00   0.0000000E+00   0.0000000E+00   0.0000000E+00
  -0.2307310E-01   0.1427152E+00  -0.1000000E-02   0.0000000E+00   0.0000000E+00   0.0000000E+00   0.0000000E+00
  -0.2311140E-01   0.1429522E+00   0.0000000E+00   0.0000000E+00   0.0000000E+00   0.0000000E+00   0.0000000E+00
  -0.4113370E-01   0.1385930E+00  -0.1000000E-02   0.0000000E+00   0.0000000E+00   0.0000000E+00   0.0000000E+00
  -0.4120200E-01   0.1388232E+00   0.0000000E+00   0.0000000E+00   0.0000000E+00   0.0000000E+00   0.0000000E+00
  -0.3216950E-01   0.1409437E+00  -0.1000000E-02   0.0000000E+00   0.0000000E+00   0.0000000E+00   0.0000000E+00
  -0.3222290E-01   0.1411778E+00   0.0000000E+00   0.0000000E+00   0.0000000E+00   0.0000000E+00   0.0000000E+00
  -0.4992890E-01   0.1356728E+00  -0.1000000E-02   0.0000000E+00   0.0000000E+00   0.0000000E+00   0.0000000E+00
  -0.5001180E-01   0.1358981E+00   0.0000000E+00   0.0000000E+00   0.0000000E+00   0.0000000E+00   0.0000000E+00
  -0.4113370E-01   0.1385930E+00  -0.1000000E-02   0.0000000E+00   0.0000000E+00   0.0000000E+00   0.0000000E+00
  -0.4120200E-01   0.1388232E+00   0.0000000E+00   0.0000000E+00   0.0000000E+00   0.0000000E+00   0.0000000E+00
  -0.5851880E-01   0.1321951E+00  -0.1000000E-02   0.0000000E+00   0.0000000E+00   0.0000000E+00   0.0000000E+00
  -0.5861600E-01   0.1324147E+00   0.0000000E+00   0.0000000E+00   0.0000000E+00   0.0000000E+00   0.0000000E+00
  -0.4992890E-01   0.1356728E+00  -0.1000000E-02   0.0000000E+00   0.0000000E+00   0.0000000E+00   0.0000000E+00
  -0.5001180E-01   0.1358981E+00   0.0000000E+00   0.0000000E+00   0.0000000E+00   0.0000000E+00   0.0000000E+00
  -0.6686840E-01   0.1281742E+00  -0.1000000E-02   0.0000000E+00   0.0000000E+00   0.0000000E+00   0.0000000E+00
  -0.6697940E-01   0.1283871E+00   0.0000000E+00   0.0000000E+00   0.0000000E+00   0.0000000E+00   0.0000000E+00
  -0.5851880E-01   0.1321951E+00  -0.1000000E-02   0.0000000E+00   0.0000000E+00   0.0000000E+00   0.0000000E+00
  -0.5861600E-01   0.1324147E+00   0.0000000E+00   0.0000000E+00   0.0000000E+00   0.0000000E+00   0.0000000E+00
  -0.7494310E-01   0.1236266E+00  -0.1000000E-02   0.0000000E+00   0.0000000E+00   0.0000000E+00   0.0000000E+00
  -0.7506760E-01   0.1238319E+00   0.0000000E+00   0.0000000E+00   0.0000000E+00   0.0000000E+00   0.0000000E+00
  -0.6686840E-01   0.1281742E+00  -0.1000000E-02   0.0000000E+00   0.0000000E+00   0.0000000E+00   0.0000000E+00
  -0.6697940E-01   0.1283871E+00   0.0000000E+00   0.0000000E+00   0.0000000E+00   0.0000000E+00   0.0000000E+00
  -0.8271000E-01   0.1185709E+00  -0.1000000E-02   0.0000000E+00   0.0000000E+00   0.0000000E+00   0.0000000E+00
  -0.8284730E-01   0.1187678E+00   0.0000000E+00   0.0000000E+00   0.0000000E+00   0.0000000E+00   0.0000000E+00
  -0.7494310E-01   0.1236266E+00  -0.1000000E-02   0.0000000E+00   0.0000000E+00   0.0000000E+00   0.0000000E+00
  -0.7506760E-01   0.1238319E+00   0.0000000E+00   0.0000000E+00   0.0000000E+00   0.0000000E+00   0.0000000E+00
  -0.9013690E-01   0.1130281E+00  -0.1000000E-02   0.0000000E+00   0.0000000E+00   0.0000000E+00   0.0000000E+00
  -0.9028660E-01   0.1132158E+00   0.0000000E+00   0.0000000E+00   0.0000000E+00   0.0000000E+00   0.0000000E+00
  -0.8271000E-01   0.1185709E+00  -0.1000000E-02   0.0000000E+00   0.0000000E+00   0.0000000E+00   0.0000000E+00
  -0.8284730E-01   0.1187678E+00   0.0000000E+00   0.0000000E+00   0.0000000E+00   0.0000000E+00   0.0000000E+00
  -0.9719340E-01   0.1070207E+00  -0.1000000E-02   0.0000000E+00   0.0000000E+00   0.0000000E+00   0.0000000E+00
  -0.9735480E-01   0.1071984E+00   0.0000000E+00   0.0000000E+00   0.0000000E+00   0.0000000E+00   0.0000000E+00
  -0.9013690E-01   0.1130281E+00  -0.1000000E-02   0.0000000E+00   0.0000000E+00   0.0000000E+00   0.0000000E+00
  -0.9028660E-01   0.1132158E+00   0.0000000E+00   0.0000000E+00   0.0000000E+00   0.0000000E+00   0.0000000E+00
  -0.1038506E+00   0.1005737E+00  -0.1000000E-02   0.0000000E+00   0.0000000E+00   0.0000000E+00   0.0000000E+00
  -0.1040231E+00   0.1007407E+00   0.0000000E+00   0.0000000E+00   0.0000000E+00   0.0000000E+00   0.0000000E+00
  -0.9719340E-01   0.1070207E+00  -0.1000000E-02   0.0000000E+00   0.0000000E+00   0.0000000E+00   0.0000000E+00
  -0.9735480E-01   0.1071984E+00   0.0000000E+00   0.0000000E+00   0.0000000E+00   0.0000000E+00   0.0000000E+00
  -0.1100810E+00   0.9371330E-01  -0.1000000E-02   0.0000000E+00   0.0000000E+00   0.0000000E+00   0.0000000E+00
  -0.1102638E+00   0.9386890E-01   0.0000000E+00   0.0000000E+00   0.0000000E+00   0.0000000E+00   0.0000000E+00
  -0.1038506E+00   0.1005737E+00  -0.1000000E-02   0.0000000E+00   0.0000000E+00   0.0000000E+00   0.0000000E+00
  -0.1040231E+00   0.1007407E+00   0.0000000E+00   0.0000000E+00   0.0000000E+00   0.0000000E+00   0.0000000E+00
  -0.1158590E+00   0.8646780E-01  -0.1000000E-02   0.0000000E+00   0.0000000E+00   0.0000000E+00   0.0000000E+00
  -0.1160514E+00   0.8661140E-01   0.0000000E+00   0.0000000E+00   0.0000000E+00   0.0000000E+00   0.0000000E+00
  -0.1100810E+00   0.9371330E-01  -0.1000000E-02   0.0000000E+00   0.0000000E+00   0.0000000E+00   0.0000000E+00
  -0.1102638E+00   0.9386890E-01   0.0000000E+00   0.0000000E+00   0.0000000E+00   0.0000000E+00   0.0000000E+00
  -0.1211610E+00   0.7886710E-01  -0.1000000E-02   0.0000000E+00   0.0000000E+00   0.0000000E+00   0.0000000E+00
  -0.1213622E+00   0.7899810E-01   0.0000000E+00   0.0000000E+00   0.0000000E+00   0.0000000E+00   0.0000000E+00
  -0.1158590E+00   0.8646780E-01  -0.1000000E-02   0.0000000E+00   0.0000000E+00   0.0000000E+00   0.0000000E+00
  -0.1160514E+00   0.8661140E-01   0.0000000E+00   0.0000000E+00   0.0000000E+00   0.0000000E+00   0.0000000E+00
  -0.1259651E+00   0.7094220E-01  -0.1000000E-02   0.0000000E+00   0.0000000E+00   0.0000000E+00   0.0000000E+00
  -0.1261743E+00   0.7106000E-01   0.0000000E+00   0.0000000E+00   0.0000000E+00   0.0000000E+00   0.0000000E+00
  -0.1211610E+00   0.7886710E-01  -0.1000000E-02   0.0000000E+00   0.0000000E+00   0.0000000E+00   0.0000000E+00
  -0.1213622E+00   0.7899810E-01   0.0000000E+00   0.0000000E+00   0.0000000E+00   0.0000000E+00   0.0000000E+00
  -0.1302516E+00   0.6272580E-01  -0.1000000E-02   0.0000000E+00   0.0000000E+00   0.0000000E+00   0.0000000E+00
  -0.1304679E+00   0.6283000E-01   0.0000000E+00   0.0000000E+00   0.0000000E+00   0.0000000E+00   0.0000000E+00
  -0.1259651E+00   0.7094220E-01  -0.1000000E-02   0.0000000E+00   0.0000000E+00   0.0000000E+00   0.0000000E+00
  -0.1261743E+00   0.7106000E-01   0.0000000E+00   0.0000000E+00   0.0000000E+00   0.0000000E+00   0.0000000E+00
  -0.1340028E+00   0.5425170E-01  -0.1000000E-02   0.0000000E+00   0.0000000E+00   0.0000000E+00   0.0000000E+00
  -0.1342254E+00   0.5434180E-01   0.0000000E+00   0.0000000E+00   0.0000000E+00   0.0000000E+00   0.0000000E+00
  -0.1302516E+00   0.6272580E-01  -0.1000000E-02   0.0000000E+00   0.0000000E+00   0.0000000E+00   0.0000000E+00
  -0.1304679E+00   0.6283000E-01   0.0000000E+00   0.0000000E+00   0.0000000E+00   0.0000000E+00   0.0000000E+00
  -0.1372034E+00   0.4555470E-01  -0.1000000E-02   0.0000000E+00   0.0000000E+00   0.0000000E+00   0.0000000E+00
  -0.1374313E+00   0.4563030E-01   0.0000000E+00   0.0000000E+00   0.0000000E+00   0.0000000E+00   0.0000000E+00
  -0.1340028E+00   0.5425170E-01  -0.1000000E-02   0.0000000E+00   0.0000000E+00   0.0000000E+00   0.0000000E+00
  -0.1342254E+00   0.5434180E-01   0.0000000E+00   0.0000000E+00   0.0000000E+00   0.0000000E+00   0.0000000E+00
  -0.1398402E+00   0.3667040E-01  -0.1000000E-02   0.0000000E+00   0.0000000E+00   0.0000000E+00   0.0000000E+00
  -0.1400725E+00   0.3673130E-01   0.0000000E+00   0.0000000E+00   0.0000000E+00   0.0000000E+00   0.0000000E+00
  -0.1372034E+00   0.4555470E-01  -0.1000000E-02   0.0000000E+00   0.0000000E+00   0.0000000E+00   0.0000000E+00
  -0.1374313E+00   0.4563030E-01   0.0000000E+00   0.0000000E+00   0.0000000E+00   0.0000000E+00   0.0000000E+00
  -0.1419024E+00   0.2763550E-01  -0.1000000E-02   0.0000000E+00   0.0000000E+00   0.0000000E+00   0.0000000E+00
  -0.1421381E+00   0.2768140E-01   0.0000000E+00   0.0000000E+00   0.0000000E+00   0.0000000E+00   0.0000000E+00
  -0.1398402E+00   0.3667040E-01  -0.1000000E-02   0.0000000E+00   0.0000000E+00   0.0000000E+00   0.0000000E+00
  -0.1400725E+00   0.3673130E-01   0.0000000E+00   0.0000000E+00   0.0000000E+00   0.0000000E+00   0.0000000E+00
  -0.1433814E+00   0.1848700E-01  -0.1000000E-02   0.0000000E+00   0.0000000E+00   0.0000000E+00   0.0000000E+00
  -0.1436195E+00   0.1851770E-01   0.0000000E+00   0.0000000E+00   0.0000000E+00   0.0000000E+00   0.0000000E+00
  -0.1419024E+00   0.2763550E-01  -0.1000000E-02   0.0000000E+00   0.0000000E+00   0.0000000E+00   0.0000000E+00
  -0.1421381E+00   0.2768140E-01   0.0000000E+00   0.0000000E+00   0.0000000E+00   0.0000000E+00   0.0000000E+00
  -0.1442713E+00   0.9262500E-02  -0.1000000E-02   0.0000000E+00   0.0000000E+00   0.0000000E+00   0.0000000E+00
  -0.1445109E+00   0.9277900E-02   0.0000000E+00   0.0000000E+00   0.0000000E+00   0.0000000E+00   0.0000000E+00
  -0.1433814E+00   0.1848700E-01  -0.1000000E-02   0.0000000E+00   0.0000000E+00   0.0000000E+00   0.0000000E+00
  -0.1436195E+00   0.1851770E-01   0.0000000E+00   0.0000000E+00   0.0000000E+00   0.0000000E+00   0.0000000E+00
  -0.1445683E+00   0.0000000E+00  -0.1000000E-02   0.0000000E+00   0.0000000E+00   0.0000000E+00   0.0000000E+00
  -0.1448084E+00   0.0000000E+00   0.0000000E+00   0.0000000E+00   0.0000000E+00   0.0000000E+00   0.0000000E+00
  -0.1442713E+00   0.9262500E-02  -0.1000000E-02   0.0000000E+00   0.0000000E+00   0.0000000E+00   0.0000000E+00
  -0.1445109E+00   0.9277900E-02   0.0000000E+00   0.0000000E+00   0.0000000E+00   0.0000000E+00   0.0000000E+00
   0.1411308E+00   0.9060900E-02  -0.1100000E-01   0.0000000E+00   0.0000000E+00   0.0000000E+00   0.0000000E+00
   0.1442713E+00   0.9262500E-02  -0.1000000E-02   0.0000000E+00   0.0000000E+00   0.0000000E+00   0.0000000E+00
   0.1414214E+00   0.0000000E+00  -0.1100000E-01   0.0000000E+00   0.0000000E+00   0.0000000E+00   0.0000000E+00
   0.1445683E+00   0.0000000E+00  -0.1000000E-02   0.0000000E+00   0.0000000E+00   0.0000000E+00   0.0000000E+00
   0.1402603E+00   0.1808460E-01  -0.1100000E-01   0.0000000E+00   0.0000000E+00   0.0000000E+00   0.0000000E+00
   0.1433814E+00   0.1848700E-01  -0.1000000E-02   0.0000000E+00   0.0000000E+00   0.0000000E+00   0.0000000E+00
   0.1411308E+00   0.9060900E-02  -0.1100000E-01   0.0000000E+00   0.0000000E+00   0.0000000E+00   0.0000000E+00
   0.1442713E+00   0.9262500E-02  -0.1000000E-02   0.0000000E+00   0.0000000E+00   0.0000000E+00   0.0000000E+00
   0.1388134E+00   0.2703390E-01  -0.1100000E-01   0.0000000E+00   0.0000000E+00   0.0000000E+00   0.0000000E+00
   0.1419024E+00   0.2763550E-01  -0.1000000E-02   0.0000000E+00   0.0000000E+00   0.0000000E+00   0.0000000E+00
   0.1402603E+00   0.1808460E-01  -0.1100000E-01   0.0000000E+00   0.0000000E+00   0.0000000E+00   0.0000000E+00
   0.1433814E+00   0.1848700E-01  -0.1000000E-02   0.0000000E+00   0.0000000E+00   0.0000000E+00   0.0000000E+00
   0.1367962E+00   0.3587220E-01  -0.1100000E-01   0.0000000E+00   0.0000000E+00   0.0000000E+00   0.0000000E+00
   0.1398402E+00   0.3667040E-01  -0.1000000E-02   0.0000000E+00   0.0000000E+00   0.0000000E+00   0.0000000E+00
   0.1388134E+00   0.2703390E-01  -0.1100000E-01   0.0000000E+00   0.0000000E+00   0.0000000E+00   0.0000000E+00
   0.1419024E+00   0.2763550E-01  -0.1000000E-02   0.0000000E+00   0.0000000E+00   0.0000000E+00   0.0000000E+00
   0.1342168E+00   0.4456300E-01  -0.1100000E-01   0.0000000E+00   0.0000000E+00   0.0000000E+00   0.0000000E+00
   0.1372034E+00   0.4555470E-01  -0.1000000E-02   0.0000000E+00   0.0000000E+00   0.0000000E+00   0.0000000E+00
   0.1367962E+00   0.3587220E-01  -0.1100000E-01   0.0000000E+00   0.0000000E+00   0.0000000E+00   0.0000000E+00
   0.1398402E+00   0.3667040E-01  -0.1000000E-02   0.0000000E+00   0.0000000E+00   0.0000000E+00   0.0000000E+00
   0.1310858E+00   0.5307080E-01  -0.1100000E-01   0.0000000E+00   0.0000000E+00   0.0000000E+00   0.0000000E+00
   0.1340028E+00   0.5425170E-01  -0.1000000E-02   0.0000000E+00   0.0000000E+00   0.0000000E+00   0.0000000E+00
   0.1342168E+00   0.4456300E-01  -0.1100000E-01   0.0000000E+00   0.0000000E+00   0.0000000E+00   0.0000000E+00
   0.1372034E+00   0.4555470E-01  -0.1000000E-02   0.0000000E+00   0.0000000E+00   0.0000000E+00   0.0000000E+00
   0.1274162E+00   0.6136040E-01  -0.1100000E-01   0.0000000E+00   0.0000000E+00   0.0000000E+00   0.0000000E+00
   0.1302516E+00   0.6272580E-01  -0.1000000E-02   0.0000000E+00   0.0000000E+00   0.0000000E+00   0.0000000E+00
   0.1310858E+00   0.5307080E-01  -0.1100000E-01   0.0000000E+00   0.0000000E+00   0.0000000E+00   0.0000000E+00
   0.1340028E+00   0.5425170E-01  -0.1000000E-02   0.0000000E+00   0.0000000E+00   0.0000000E+00   0.0000000E+00
   0.1232231E+00   0.6939790E-01  -0.1100000E-01   0.0000000E+00   0.0000000E+00   0.0000000E+00   0.0000000E+00
   0.1259651E+00   0.7094220E-01  -0.1000000E-02   0.0000000E+00   0.0000000E+00   0.0000000E+00   0.0000000E+00
   0.1274162E+00   0.6136040E-01  -0.1100000E-01   0.0000000E+00   0.0000000E+00   0.0000000E+00   0.0000000E+00
   0.1302516E+00   0.6272580E-01  -0.1000000E-02   0.0000000E+00   0.0000000E+00   0.0000000E+00   0.0000000E+00
   0.1185236E+00   0.7715030E-01  -0.1100000E-01   0.0000000E+00   0.0000000E+00   0.0000000E+00   0.0000000E+00
   0.1211610E+00   0.7886710E-01  -0.1000000E-02   0.0000000E+00   0.0000000E+00   0.0000000E+00   0.0000000E+00
   0.1232231E+00   0.6939790E-01  -0.1100000E-01   0.0000000E+00   0.0000000E+00   0.0000000E+00   0.0000000E+00
   0.1259651E+00   0.7094220E-01  -0.1000000E-02   0.0000000E+00   0.0000000E+00   0.0000000E+00   0.0000000E+00
   0.1133370E+00   0.8458560E-01  -0.1100000E-01   0.0000000E+00   0.0000000E+00   0.0000000E+00   0.0000000E+00
   0.1158590E+00   0.8646780E-01  -0.1000000E-02   0.0000000E+00   0.0000000E+00   0.0000000E+00   0.0000000E+00
   0.1185236E+00   0.7715030E-01  -0.1100000E-01   0.0000000E+00   0.0000000E+00   0.0000000E+00   0.0000000E+00
   0.1211610E+00   0.7886710E-01  -0.1000000E-02   0.0000000E+00   0.0000000E+00   0.0000000E+00   0.0000000E+00
   0.1076847E+00   0.9167330E-01  -0.1100000E-01   0.0000000E+00   0.0000000E+00   0.0000000E+00   0.0000000E+00
   0.1100810E+00   0.9371330E-01  -0.1000000E-02   0.0000000E+00   0.0000000E+00   0.0000000E+00   0.0000000E+00
   0.1133370E+00   0.8458560E-01  -0.1100000E-01   0.0000000E+00   0.0000000E+00   0.0000000E+00   0.0000000E+00
   0.1158590E+00   0.8646780E-01  -0.1000000E-02   0.0000000E+00   0.0000000E+00   0.0000000E+00   0.0000000E+00
   0.1015899E+00   0.9838440E-01  -0.1100000E-01   0.0000000E+00   0.0000000E+00   0.0000000E+00   0.0000000E+00
   0.1038506E+00   0.1005737E+00  -0.1000000E-02   0.0000000E+00   0.0000000E+00   0.0000000E+00   0.0000000E+00
   0.1076847E+00   0.9167330E-01  -0.1100000E-01   0.0000000E+00   0.0000000E+00   0.0000000E+00   0.0000000E+00
   0.1100810E+00   0.9371330E-01  -0.1000000E-02   0.0000000E+00   0.0000000E+00   0.0000000E+00   0.0000000E+00
   0.9507770E-01   0.1046911E+00  -0.1100000E-01   0.0000000E+00   0.0000000E+00   0.0000000E+00   0.0000000E+00
   0.9719340E-01   0.1070207E+00  -0.1000000E-02   0.0000000E+00   0.0000000E+00   0.0000000E+00   0.0000000E+00
   0.1015899E+00   0.9838440E-01  -0.1100000E-01   0.0000000E+00   0.0000000E+00   0.0000000E+00   0.0000000E+00
   0.1038506E+00   0.1005737E+00  -0.1000000E-02   0.0000000E+00   0.0000000E+00   0.0000000E+00   0.0000000E+00
   0.8817480E-01   0.1105677E+00  -0.1100000E-01   0.0000000E+00   0.0000000E+00   0.0000000E+00   0.0000000E+00
   0.9013690E-01   0.1130281E+00  -0.1000000E-02   0.0000000E+00   0.0000000E+00   0.0000000E+00   0.0000000E+00
   0.9507770E-01   0.1046911E+00  -0.1100000E-01   0.0000000E+00   0.0000000E+00   0.0000000E+00   0.0000000E+00
   0.9719340E-01   0.1070207E+00  -0.1000000E-02   0.0000000E+00   0.0000000E+00   0.0000000E+00   0.0000000E+00
   0.8090950E-01   0.1159899E+00  -0.1100000E-01   0.0000000E+00   0.0000000E+00   0.0000000E+00   0.0000000E+00
   0.8271000E-01   0.1185709E+00  -0.1000000E-02   0.0000000E+00   0.0000000E+00   0.0000000E+00   0.0000000E+00
   0.8817480E-01   0.1105677E+00  -0.1100000E-01   0.0000000E+00   0.0000000E+00   0.0000000E+00   0.0000000E+00
   0.9013690E-01   0.1130281E+00  -0.1000000E-02   0.0000000E+00   0.0000000E+00   0.0000000E+00   0.0000000E+00
   0.7331180E-01   0.1209354E+00  -0.1100000E-01   0.0000000E+00   0.0000000E+00   0.0000000E+00   0.0000000E+00
   0.7494310E-01   0.1236266E+00  -0.1000000E-02   0.0000000E+00   0.0000000E+00   0.0000000E+00   0.0000000E+00
   0.8090950E-01   0.1159899E+00  -0.1100000E-01   0.0000000E+00   0.0000000E+00   0.0000000E+00   0.0000000E+00
   0.8271000E-01   0.1185709E+00  -0.1000000E-02   0.0000000E+00   0.0000000E+00   0.0000000E+00   0.0000000E+00
   0.6541280E-01   0.1253841E+00  -0.1100000E-01   0.0000000E+00   0.0000000E+00   0.0000000E+00   0.0000000E+00
   0.6686840E-01   0.1281742E+00  -0.1000000E-02   0.0000000E+00   0.0000000E+00   0.0000000E+00   0.0000000E+00