VARIABLES="w (rad/s)"
"abs(F   1   1)" "angle(F   1   1)"
"abs(F   1   2)" "angle(F   1   2)"
"abs(F   1   3)" "angle(F   1   3)"
Zone t="Diffraction force - beta =   0.000 deg",I=   100,F=POINT
  0.1000000E+00  0.7861431E-01 -0.1570796E+01  0.4881495E-01 -0.3141308E+01  0.2296391E+00 -0.1570796E+01
  0.3010101E+00  0.7116753E+00 -0.1570796E+01  0.4422688E+00 -0.3139026E+01  0.2078865E+01 -0.1570796E+01
  0.5020202E+00  0.1980237E+01 -0.1570796E+01  0.1236714E+01 -0.3134570E+01  0.5784436E+01 -0.1570796E+01
  0.7030303E+00  0.3903411E+01 -0.1570795E+01  0.2434486E+01 -0.3128098E+01  0.1140219E+02 -0.1570795E+01
  0.9040404E+00  0.6469873E+01 -0.1570789E+01  0.4023147E+01 -0.3119750E+01  0.1889903E+02 -0.1570789E+01
  0.1105051E+01  0.9674860E+01 -0.1570772E+01  0.6000507E+01 -0.3109786E+01  0.2826106E+02 -0.1570772E+01
  0.1306061E+01  0.1350256E+02 -0.1570731E+01  0.8357653E+01 -0.3098478E+01  0.3944209E+02 -0.1570731E+01
  0.1507071E+01  0.1793441E+02 -0.1570644E+01  0.1106114E+02 -0.3086021E+01  0.5238785E+02 -0.1570644E+01
  0.1708081E+01  0.2307317E+02 -0.1570479E+01  0.1408620E+02 -0.3072691E+01  0.6739856E+02 -0.1570479E+01
  0.1909091E+01  0.2873910E+02 -0.1570187E+01  0.1740722E+02 -0.3058790E+01  0.8394910E+02 -0.1570187E+01
  0.2110101E+01  0.3516876E+02 -0.1569707E+01  0.2097973E+02 -0.3044546E+01  0.1027307E+03 -0.1569707E+01
  0.2311111E+01  0.4213478E+02 -0.1568951E+01  0.2474135E+02 -0.3030107E+01  0.1230788E+03 -0.1568951E+01
  0.2512121E+01  0.4978573E+02 -0.1567818E+01  0.2868873E+02 -0.3015924E+01  0.1454275E+03 -0.1567818E+01
  0.2713131E+01  0.5820436E+02 -0.1566183E+01  0.3272520E+02 -0.3001979E+01  0.1700190E+03 -0.1566182E+01
  0.2914141E+01  0.6712796E+02 -0.1563881E+01  0.3681477E+02 -0.2988539E+01  0.1960851E+03 -0.1563881E+01
  0.3115151E+01  0.7679307E+02 -0.1560748E+01  0.4095195E+02 -0.2976002E+01  0.2243172E+03 -0.1560748E+01
  0.3316161E+01  0.8739370E+02 -0.1556599E+01  0.4502806E+02 -0.2964250E+01  0.2552821E+03 -0.1556599E+01
  0.3517171E+01  0.9863552E+02 -0.1551187E+01  0.4899713E+02 -0.2953420E+01  0.2881203E+03 -0.1551186E+01
  0.3718182E+01  0.1104212E+03 -0.1544248E+01  0.5288638E+02 -0.2943980E+01  0.3225461E+03 -0.1544247E+01
  0.3919192E+01  0.1231866E+03 -0.1535576E+01  0.5661036E+02 -0.2935837E+01  0.3598341E+03 -0.1535575E+01
  0.4120202E+01  0.1369950E+03 -0.1524909E+01  0.6012747E+02 -0.2929052E+01  0.4001684E+03 -0.1524909E+01
  0.4321212E+01  0.1516048E+03 -0.1511911E+01  0.6341666E+02 -0.2923761E+01  0.4428439E+03 -0.1511911E+01
  0.4522222E+01  0.1668597E+03 -0.1496242E+01  0.6643015E+02 -0.2919941E+01  0.4874036E+03 -0.1496241E+01
  0.4723232E+01  0.1827022E+03 -0.1477592E+01  0.6921519E+02 -0.2917963E+01  0.5336801E+03 -0.1477591E+01
  0.4924242E+01  0.1996379E+03 -0.1455841E+01  0.7175302E+02 -0.2917899E+01  0.5831478E+03 -0.1455840E+01
  0.5125252E+01  0.2176085E+03 -0.1430706E+01  0.7394913E+02 -0.2919486E+01  0.6356404E+03 -0.1430705E+01
  0.5326262E+01  0.2361773E+03 -0.1401779E+01  0.7581792E+02 -0.2922869E+01  0.6898794E+03 -0.1401777E+01
  0.5527273E+01  0.2551457E+03 -0.1368759E+01  0.7741782E+02 -0.2928273E+01  0.7452862E+03 -0.1368758E+01
  0.5728283E+01  0.2741200E+03 -0.1331352E+01  0.7871072E+02 -0.2935674E+01  0.8007087E+03 -0.1331350E+01
  0.5929293E+01  0.2928471E+03 -0.1289459E+01  0.7969610E+02 -0.2945240E+01  0.8554105E+03 -0.1289457E+01
  0.6130303E+01  0.3114263E+03 -0.1243296E+01  0.8040402E+02 -0.2957148E+01  0.9096809E+03 -0.1243294E+01
  0.6331313E+01  0.3296166E+03 -0.1192955E+01  0.8083971E+02 -0.2971311E+01  0.9628120E+03 -0.1192952E+01
  0.6532323E+01  0.3466801E+03 -0.1138326E+01  0.8100272E+02 -0.2987875E+01  0.1012654E+04 -0.1138323E+01
  0.6733334E+01  0.3620435E+03 -0.1079574E+01  0.8089097E+02 -0.3007000E+01  0.1057529E+04 -0.1079571E+01
  0.6934343E+01  0.3752574E+03 -0.1017238E+01  0.8052609E+02 -0.3028940E+01  0.1096126E+04 -0.1017233E+01
  0.7135354E+01  0.3860823E+03 -0.9520839E+00  0.7995236E+02 -0.3053830E+01  0.1127742E+04 -0.9520767E+00
  0.7336363E+01  0.3940702E+03 -0.8846221E+00  0.7921145E+02 -0.3081699E+01  0.1151074E+04 -0.8846160E+00
  0.7537374E+01  0.3988566E+03 -0.8153921E+00  0.7831346E+02 -0.3112774E+01  0.1165053E+04 -0.8153855E+00
  0.7738384E+01  0.4003335E+03 -0.7452270E+00  0.7728146E+02  0.3135779E+01  0.1169367E+04 -0.7452191E+00
  0.7939394E+01  0.3985604E+03 -0.6750378E+00  0.7614636E+02  0.3097455E+01  0.1164185E+04 -0.6750295E+00
  0.8140405E+01  0.3935626E+03 -0.6053020E+00  0.7496022E+02  0.3055335E+01  0.1149586E+04 -0.6052928E+00
  0.8341414E+01  0.3855836E+03 -0.5365480E+00  0.7378227E+02  0.3009601E+01  0.1126278E+04 -0.5365375E+00
  0.8542424E+01  0.3750302E+03 -0.4692438E+00  0.7266000E+02  0.2960192E+01  0.1095451E+04 -0.4692323E+00
  0.8743435E+01  0.3623270E+03 -0.4038066E+00  0.7161837E+02  0.2907062E+01  0.1058346E+04 -0.4037935E+00
  0.8944445E+01  0.3478045E+03 -0.3403039E+00  0.7069738E+02  0.2850686E+01  0.1015924E+04 -0.3402895E+00
  0.9145455E+01  0.3318348E+03 -0.2788004E+00  0.6993442E+02  0.2791383E+01  0.9692762E+03 -0.2787841E+00
  0.9346465E+01  0.3147593E+03 -0.2190646E+00  0.6939097E+02  0.2729755E+01  0.9193992E+03 -0.2190472E+00
  0.9547475E+01  0.2970195E+03 -0.1611731E+00  0.6906705E+02  0.2666635E+01  0.8675795E+03 -0.1611546E+00
  0.9748485E+01  0.2788009E+03 -0.1048021E+00  0.6897644E+02  0.2602963E+01  0.8143641E+03 -0.1047816E+00
  0.9949495E+01  0.2603295E+03 -0.4956548E-01  0.6914059E+02  0.2539457E+01  0.7604107E+03 -0.4954300E-01
  0.1015051E+02  0.2418752E+03  0.4761462E-02  0.6952180E+02  0.2476874E+01  0.7065067E+03  0.4786156E-02
  0.1035151E+02  0.2235659E+03  0.5863260E-01  0.7010318E+02  0.2416049E+01  0.6530253E+03  0.5865959E-01
  0.1055252E+02  0.2055101E+03  0.1125175E+00  0.7086855E+02  0.2357624E+01  0.6002847E+03  0.1125470E+00
  0.1075354E+02  0.1878333E+03  0.1673564E+00  0.7179547E+02  0.2302331E+01  0.5486509E+03  0.1673892E+00
  0.1095455E+02  0.1706379E+03  0.2234645E+00  0.7282028E+02  0.2250345E+01  0.4984261E+03  0.2234998E+00
  0.1115556E+02  0.1539790E+03  0.2816741E+00  0.7390508E+02  0.2201883E+01  0.4497666E+03  0.2817127E+00
  0.1135657E+02  0.1379402E+03  0.3434517E+00  0.7502190E+02  0.2157132E+01  0.4029190E+03  0.3434943E+00
  0.1155758E+02  0.1225841E+03  0.4098667E+00  0.7612671E+02  0.2115941E+01  0.3580658E+03  0.4099125E+00
  0.1175859E+02  0.1079585E+03  0.4828626E+00  0.7719275E+02  0.2078023E+01  0.3153460E+03  0.4829124E+00
  0.1195960E+02  0.9414379E+02  0.5648537E+00  0.7813387E+02  0.2043527E+01  0.2749950E+03  0.5649085E+00
  0.1216061E+02  0.8121643E+02  0.6598753E+00  0.7899654E+02  0.2012034E+01  0.2372360E+03  0.6599342E+00
  0.1236162E+02  0.6929601E+02  0.7734658E+00  0.7985767E+02  0.1985132E+01  0.2024185E+03  0.7735266E+00
  0.1256263E+02  0.5855847E+02  0.9130389E+00  0.8089683E+02  0.1961707E+01  0.1710563E+03  0.9130987E+00
  0.1276364E+02  0.4927028E+02  0.1088519E+01  0.8242205E+02  0.1944286E+01  0.1439277E+03  0.1088573E+01
  0.1296465E+02  0.4183071E+02  0.1311296E+01  0.8701202E+02  0.1943201E+01  0.1221982E+03  0.1311329E+01
  0.1316566E+02  0.3674783E+02  0.1584700E+01  0.1725675E+03 -0.3030483E+01  0.1073512E+03  0.1584697E+01
  0.1336667E+02  0.3446256E+02  0.1892943E+01  0.6449811E+02  0.1823447E+01  0.1006748E+03  0.1892895E+01
  0.1356768E+02  0.3490976E+02  0.2197065E+01  0.6850878E+02  0.1822955E+01  0.1019781E+03  0.2196983E+01
  0.1376869E+02  0.3752359E+02  0.2460922E+01  0.6888113E+02  0.1812237E+01  0.1096096E+03  0.2460827E+01
  0.1396970E+02  0.4151576E+02  0.2673072E+01  0.6803498E+02  0.1799151E+01  0.1212670E+03  0.2672978E+01
  0.1417071E+02  0.4614629E+02  0.2839935E+01  0.6642590E+02  0.1785274E+01  0.1347895E+03  0.2839851E+01
  0.1437172E+02  0.5097392E+02  0.2972987E+01  0.6434548E+02  0.1771327E+01  0.1488884E+03  0.2972915E+01
  0.1457273E+02  0.5574475E+02  0.3081737E+01  0.6191201E+02  0.1757182E+01  0.1628214E+03  0.3081677E+01
  0.1477374E+02  0.6027948E+02 -0.3110003E+01  0.5915456E+02  0.1742677E+01  0.1760657E+03 -0.3110052E+01
  0.1497475E+02  0.6447078E+02 -0.3030911E+01  0.5610834E+02  0.1727506E+01  0.1883064E+03 -0.3030951E+01
  0.1517576E+02  0.6822366E+02 -0.2960153E+01  0.5278126E+02  0.1711580E+01  0.1992666E+03 -0.2960184E+01
  0.1537677E+02  0.7153384E+02 -0.2895531E+01  0.4923915E+02  0.1693986E+01  0.2089346E+03 -0.2895554E+01
  0.1557778E+02  0.7432492E+02 -0.2834801E+01  0.4548424E+02  0.1674085E+01  0.2170865E+03 -0.2834818E+01
  0.1577879E+02  0.7663452E+02 -0.2776372E+01  0.4164185E+02  0.1651819E+01  0.2238316E+03 -0.2776381E+01
  0.1597980E+02  0.7834055E+02 -0.2717282E+01  0.3769384E+02  0.1625291E+01  0.2288137E+03 -0.2717284E+01
  0.1618081E+02  0.7913284E+02 -0.2651710E+01  0.3368454E+02  0.1593205E+01  0.2311270E+03 -0.2651707E+01
  0.1638182E+02  0.7897521E+02 -0.2566236E+01  0.2963098E+02  0.1554124E+01  0.2306651E+03 -0.2566226E+01
  0.1658283E+02  0.7443781E+02 -0.2385943E+01  0.2560452E+02  0.1503431E+01  0.2174078E+03 -0.2385923E+01
  0.1678384E+02  0.6667621E+02  0.2637608E+01  0.2165966E+02  0.1434742E+01  0.1947752E+03  0.2637596E+01
  0.1698485E+02  0.8639193E+02 -0.2763461E+01  0.1787818E+02  0.1337994E+01  0.2523380E+03 -0.2763446E+01
  0.1718586E+02  0.8471108E+02 -0.2633902E+01  0.1438507E+02  0.1194532E+01  0.2474255E+03 -0.2633879E+01
  0.1738687E+02  0.8298080E+02 -0.2562850E+01  0.1141043E+02  0.9740900E+00  0.2423715E+03 -0.2562824E+01
  0.1758788E+02  0.8115089E+02 -0.2507923E+01  0.9367100E+01  0.6425142E+00  0.2370262E+03 -0.2507892E+01
  0.1778889E+02  0.7908447E+02 -0.2460007E+01  0.8770658E+01  0.2219013E+00  0.2309906E+03 -0.2459970E+01
  0.1798990E+02  0.7675603E+02 -0.2415884E+01  0.9689905E+01 -0.1639264E+00  0.2241900E+03 -0.2415843E+01
  0.1819091E+02  0.7411053E+02 -0.2373987E+01  0.1158700E+02 -0.4345805E+00  0.2164637E+03 -0.2373944E+01
  0.1839192E+02  0.7122821E+02 -0.2332906E+01  0.1389599E+02 -0.6087992E+00  0.2080456E+03 -0.2332859E+01
  0.1859293E+02  0.6804314E+02 -0.2291817E+01  0.1630145E+02 -0.7216765E+00  0.1987430E+03 -0.2291768E+01
  0.1879394E+02  0.6455792E+02 -0.2250582E+01  0.1861868E+02 -0.7960793E+00  0.1885641E+03 -0.2250530E+01
  0.1899495E+02  0.6081528E+02 -0.2209110E+01  0.2072884E+02 -0.8449845E+00  0.1776333E+03 -0.2209056E+01
  0.1919596E+02  0.5687065E+02 -0.2166317E+01  0.2261238E+02 -0.8763912E+00  0.1661121E+03 -0.2166260E+01
  0.1939697E+02  0.5274670E+02 -0.2121433E+01  0.2420798E+02 -0.8926036E+00  0.1540675E+03 -0.2121374E+01
  0.1959798E+02  0.4847270E+02 -0.2073975E+01  0.2542727E+02 -0.8923697E+00  0.1415847E+03 -0.2073916E+01
  0.1979899E+02  0.4408853E+02 -0.2023060E+01  0.2615883E+02 -0.8646143E+00  0.1287799E+03 -0.2023003E+01
  0.2000000E+02  0.3960217E+02 -0.1967231E+01  0.2559109E+02 -0.7552847E+00  0.1156765E+03 -0.1967174E+01
