VARIABLES="w (rad/s)"
"abs(F   1   1)" "angle(F   1   1)"
"abs(F   1   2)" "angle(F   1   2)"
"abs(F   1   3)" "angle(F   1   3)"
Zone t="Diffraction force - beta =   0.000 deg",I=   100,F=POINT
  0.1000000E+00  0.2025723E+00 -0.1570778E+01  0.5127096E+03 -0.2709351E-07  0.5917353E+00 -0.1570825E+01
  0.3010101E+00  0.1833935E+01 -0.1570798E+01  0.5113196E+03 -0.2220110E-05  0.5357131E+01 -0.1570799E+01
  0.5020202E+00  0.5096891E+01 -0.1570798E+01  0.5085284E+03 -0.1707887E-04  0.1488855E+02 -0.1570796E+01
  0.7030303E+00  0.1000110E+02 -0.1570796E+01  0.5043483E+03 -0.6513658E-04  0.2921429E+02 -0.1570796E+01
  0.9040404E+00  0.1652112E+02 -0.1570794E+01  0.4988022E+03 -0.1761605E-03  0.4825992E+02 -0.1570794E+01
  0.1105051E+01  0.2463345E+02 -0.1570787E+01  0.4919109E+03 -0.3879229E-03  0.7195696E+02 -0.1570787E+01
  0.1306061E+01  0.3429903E+02 -0.1570770E+01  0.4837054E+03 -0.7447196E-03  0.1001911E+03 -0.1570770E+01
  0.1507071E+01  0.4547165E+02 -0.1570736E+01  0.4742459E+03 -0.1295468E-02  0.1328275E+03 -0.1570736E+01
  0.1708081E+01  0.5822222E+02 -0.1570671E+01  0.4635905E+03 -0.2091923E-02  0.1700732E+03 -0.1570671E+01
  0.1909091E+01  0.7233508E+02 -0.1570554E+01  0.4517986E+03 -0.3186642E-02  0.2112979E+03 -0.1570555E+01
  0.2110101E+01  0.8800648E+02 -0.1570361E+01  0.4389547E+03 -0.4631065E-02  0.2570757E+03 -0.1570361E+01
  0.2311111E+01  0.1049655E+03 -0.1570055E+01  0.4251654E+03 -0.6474218E-02  0.3066144E+03 -0.1570055E+01
  0.2512121E+01  0.1233135E+03 -0.1569594E+01  0.4104781E+03 -0.8760123E-02  0.3602106E+03 -0.1569594E+01
  0.2713131E+01  0.1430825E+03 -0.1568920E+01  0.3950386E+03 -0.1152838E-01  0.4179575E+03 -0.1568919E+01
  0.2914141E+01  0.1639562E+03 -0.1567965E+01  0.3789324E+03 -0.1481232E-01  0.4789309E+03 -0.1567965E+01
  0.3115151E+01  0.1861137E+03 -0.1566650E+01  0.3622139E+03 -0.1863734E-01  0.5436544E+03 -0.1566650E+01
  0.3316161E+01  0.2096898E+03 -0.1564879E+01  0.3450460E+03 -0.2302389E-01  0.6125212E+03 -0.1564879E+01
  0.3517171E+01  0.2343272E+03 -0.1562542E+01  0.3275249E+03 -0.2798812E-01  0.6844888E+03 -0.1562542E+01
  0.3718182E+01  0.2598629E+03 -0.1559516E+01  0.3096740E+03 -0.3353552E-01  0.7590787E+03 -0.1559516E+01
  0.3919192E+01  0.2866632E+03 -0.1555664E+01  0.2916312E+03 -0.3966971E-01  0.8373649E+03 -0.1555663E+01
  0.4120202E+01  0.3147186E+03 -0.1550827E+01  0.2734905E+03 -0.4639312E-01  0.9193148E+03 -0.1550828E+01
  0.4321212E+01  0.3437094E+03 -0.1544835E+01  0.2553234E+03 -0.5370352E-01  0.1003998E+04 -0.1544835E+01
  0.4522222E+01  0.3733936E+03 -0.1537505E+01  0.2372317E+03 -0.6159939E-01  0.1090707E+04 -0.1537504E+01
  0.4723232E+01  0.4036223E+03 -0.1528655E+01  0.2192164E+03 -0.7007889E-01  0.1179006E+04 -0.1528655E+01
  0.4924242E+01  0.4347978E+03 -0.1518106E+01  0.2013465E+03 -0.7913623E-01  0.1270069E+04 -0.1518106E+01
  0.5125252E+01  0.4667482E+03 -0.1505650E+01  0.1837720E+03 -0.8875830E-01  0.1363396E+04 -0.1505650E+01
  0.5326262E+01  0.4989042E+03 -0.1491081E+01  0.1665304E+03 -0.9894975E-01  0.1457326E+04 -0.1491081E+01
  0.5527273E+01  0.5309177E+03 -0.1474211E+01  0.1496134E+03 -0.1097678E+00  0.1550835E+04 -0.1474211E+01
  0.5728283E+01  0.5622219E+03 -0.1454905E+01  0.1331118E+03 -0.1212002E+00  0.1642276E+04 -0.1454905E+01
  0.5929293E+01  0.5923782E+03 -0.1433107E+01  0.1170753E+03 -0.1331984E+00  0.1730359E+04 -0.1433108E+01
  0.6130303E+01  0.6212858E+03 -0.1408845E+01  0.1015234E+03 -0.1457643E+00  0.1814801E+04 -0.1408845E+01
  0.6331313E+01  0.6484941E+03 -0.1382167E+01  0.8650665E+02 -0.1590282E+00  0.1894273E+04 -0.1382168E+01
  0.6532323E+01  0.6730394E+03 -0.1353199E+01  0.7207366E+02 -0.1729426E+00  0.1965968E+04 -0.1353199E+01
  0.6733334E+01  0.6941404E+03 -0.1322217E+01  0.5827364E+02 -0.1873619E+00  0.2027599E+04 -0.1322217E+01
  0.6934343E+01  0.7111890E+03 -0.1289716E+01  0.4513050E+02 -0.2019506E+00  0.2077396E+04 -0.1289716E+01
  0.7135354E+01  0.7238524E+03 -0.1256288E+01  0.3264881E+02 -0.2163263E+00  0.2114384E+04 -0.1256288E+01
  0.7336363E+01  0.7316405E+03 -0.1222545E+01  0.2083699E+02 -0.2295598E+00  0.2137131E+04 -0.1222545E+01
  0.7537374E+01  0.7342159E+03 -0.1189162E+01  0.9727265E+01 -0.2341182E+00  0.2144649E+04 -0.1189163E+01
  0.7738384E+01  0.7316160E+03 -0.1156933E+01  0.7249272E+00  0.2473138E+01  0.2137052E+04 -0.1156933E+01
  0.7939394E+01  0.7241434E+03 -0.1126659E+01  0.1034289E+02  0.2810746E+01  0.2115222E+04 -0.1126659E+01
  0.8140405E+01  0.7120820E+03 -0.1098990E+01  0.1929318E+02  0.2800281E+01  0.2079989E+04 -0.1098990E+01
  0.8341414E+01  0.6959875E+03 -0.1074515E+01  0.2754607E+02  0.2781336E+01  0.2032969E+04 -0.1074514E+01
  0.8542424E+01  0.6765883E+03 -0.1053672E+01  0.3511723E+02  0.2759055E+01  0.1976305E+04 -0.1053672E+01
  0.8743435E+01  0.6546376E+03 -0.1036818E+01  0.4200574E+02  0.2734206E+01  0.1912183E+04 -0.1036816E+01
  0.8944445E+01  0.6307349E+03 -0.1024173E+01  0.4822526E+02  0.2707625E+01  0.1842365E+04 -0.1024175E+01
  0.9145455E+01  0.6055010E+03 -0.1015880E+01  0.5379821E+02  0.2679299E+01  0.1768650E+04 -0.1015879E+01
  0.9346465E+01  0.5794366E+03 -0.1011920E+01  0.5877855E+02  0.2649392E+01  0.1692515E+04 -0.1011919E+01
  0.9547475E+01  0.5531448E+03 -0.1012188E+01  0.6316973E+02  0.2618002E+01  0.1615715E+04 -0.1012189E+01
  0.9748485E+01  0.5269152E+03 -0.1016652E+01  0.6700191E+02  0.2585258E+01  0.1539096E+04 -0.1016651E+01
  0.9949495E+01  0.5010231E+03 -0.1025165E+01  0.7032627E+02  0.2550999E+01  0.1463466E+04 -0.1025164E+01
  0.1015051E+02  0.4757654E+03 -0.1037487E+01  0.7314595E+02  0.2515139E+01  0.1389689E+04 -0.1037486E+01
  0.1035151E+02  0.4512771E+03 -0.1053472E+01  0.7549625E+02  0.2477757E+01  0.1318156E+04 -0.1053472E+01
  0.1055252E+02  0.4276654E+03 -0.1072988E+01  0.7742294E+02  0.2438842E+01  0.1249188E+04 -0.1072989E+01
  0.1075354E+02  0.4049458E+03 -0.1095764E+01  0.7897391E+02  0.2398580E+01  0.1182821E+04 -0.1095765E+01
  0.1095455E+02  0.3832358E+03 -0.1121663E+01  0.8015813E+02  0.2356841E+01  0.1119406E+04 -0.1121663E+01
  0.1115556E+02  0.3625483E+03 -0.1150560E+01  0.8101330E+02  0.2313644E+01  0.1058978E+04 -0.1150560E+01
  0.1135657E+02  0.3428270E+03 -0.1182229E+01  0.8158748E+02  0.2269088E+01  0.1001371E+04 -0.1182229E+01
  0.1155758E+02  0.3241069E+03 -0.1216538E+01  0.8190893E+02  0.2223094E+01  0.9466911E+03 -0.1216538E+01
  0.1175859E+02  0.3063558E+03 -0.1253387E+01  0.8201914E+02  0.2175520E+01  0.8948383E+03 -0.1253386E+01
  0.1195960E+02  0.2895537E+03 -0.1292591E+01  0.8189989E+02  0.2126768E+01  0.8457621E+03 -0.1292592E+01
  0.1216061E+02  0.2736343E+03 -0.1334094E+01  0.8165562E+02  0.2076615E+01  0.7992604E+03 -0.1334095E+01
  0.1236162E+02  0.2585490E+03 -0.1377835E+01  0.8142371E+02  0.2026894E+01  0.7551956E+03 -0.1377835E+01
  0.1256263E+02  0.2442799E+03 -0.1423716E+01  0.8141978E+02  0.1977009E+01  0.7135171E+03 -0.1423716E+01
  0.1276364E+02  0.2308013E+03 -0.1471624E+01  0.8198183E+02  0.1930335E+01  0.6741446E+03 -0.1471624E+01
  0.1296465E+02  0.2180600E+03 -0.1521553E+01  0.8564693E+02  0.1899997E+01  0.6369286E+03 -0.1521553E+01
  0.1316566E+02  0.2060297E+03 -0.1573276E+01  0.1657725E+03 -0.3025909E+01  0.6017876E+03 -0.1573276E+01
  0.1336667E+02  0.1946424E+03 -0.1626882E+01  0.6277085E+02  0.1671869E+01  0.5685253E+03 -0.1626882E+01
  0.1356768E+02  0.1839104E+03 -0.1682285E+01  0.6648228E+02  0.1635707E+01  0.5371769E+03 -0.1682285E+01
  0.1376869E+02  0.1737724E+03 -0.1739408E+01  0.6688683E+02  0.1581230E+01  0.5075640E+03 -0.1739408E+01
  0.1396970E+02  0.1641895E+03 -0.1798360E+01  0.6635208E+02  0.1520691E+01  0.4795739E+03 -0.1798359E+01
  0.1417071E+02  0.1551471E+03 -0.1858765E+01  0.6533158E+02  0.1456315E+01  0.4531605E+03 -0.1858764E+01
  0.1437172E+02  0.1466142E+03 -0.1920632E+01  0.6410470E+02  0.1389673E+01  0.4282359E+03 -0.1920632E+01
  0.1457273E+02  0.1385595E+03 -0.1984055E+01  0.6278527E+02  0.1321202E+01  0.4047090E+03 -0.1984054E+01
  0.1477374E+02  0.1309536E+03 -0.2048884E+01  0.6139620E+02  0.1250976E+01  0.3824931E+03 -0.2048883E+01
  0.1497475E+02  0.1237657E+03 -0.2114983E+01  0.5996368E+02  0.1179039E+01  0.3614958E+03 -0.2114984E+01
  0.1517576E+02  0.1169697E+03 -0.2181794E+01  0.5847830E+02  0.1105411E+01  0.3416454E+03 -0.2181793E+01
  0.1537677E+02  0.1105330E+03 -0.2249363E+01  0.5699718E+02  0.1030081E+01  0.3228444E+03 -0.2249364E+01
  0.1557778E+02  0.1043852E+03 -0.2316895E+01  0.5550917E+02  0.9527869E+00  0.3048873E+03 -0.2316896E+01
  0.1577879E+02  0.9851435E+02 -0.2384150E+01  0.5406775E+02  0.8751699E+00  0.2877384E+03 -0.2384150E+01
  0.1597980E+02  0.9277961E+02 -0.2448848E+01  0.5265762E+02  0.7962896E+00  0.2709869E+03 -0.2448848E+01
  0.1618081E+02  0.8679669E+02 -0.2505589E+01  0.5127513E+02  0.7165304E+00  0.2535105E+03 -0.2505590E+01
  0.1638182E+02  0.8026585E+02 -0.2541897E+01  0.4988184E+02  0.6359485E+00  0.2344330E+03 -0.2541898E+01
  0.1658283E+02  0.6862069E+02 -0.2480832E+01  0.4851743E+02  0.5545275E+00  0.2004142E+03 -0.2480831E+01
  0.1678384E+02  0.7793130E+02  0.2417648E+01  0.4718335E+02  0.4721600E+00  0.2276524E+03  0.2417647E+01
  0.1698485E+02  0.8033783E+02 -0.3106674E+01  0.4587008E+02  0.3889778E+00  0.2346534E+03 -0.3106678E+01
  0.1718586E+02  0.7409854E+02 -0.3097469E+01  0.4457997E+02  0.3048045E+00  0.2164254E+03 -0.3097470E+01
  0.1738687E+02  0.6946908E+02  0.3134730E+01  0.4330787E+02  0.2197053E+00  0.2029028E+03  0.3134729E+01
  0.1758788E+02  0.6557719E+02  0.3067286E+01  0.4205678E+02  0.1338586E+00  0.1915341E+03  0.3067282E+01
  0.1778889E+02  0.6210523E+02  0.2992362E+01  0.4083688E+02  0.4728588E-01  0.1813921E+03  0.2992359E+01
  0.1798990E+02  0.5894420E+02  0.2913367E+01  0.3963051E+02 -0.3991235E-01  0.1721588E+03  0.2913364E+01
  0.1819091E+02  0.5600378E+02  0.2831230E+01  0.3843607E+02 -0.1272677E+00  0.1635705E+03  0.2831227E+01
  0.1839192E+02  0.5324591E+02  0.2748237E+01  0.3724786E+02 -0.2150040E+00  0.1555147E+03  0.2748238E+01
  0.1859293E+02  0.5059092E+02  0.2663517E+01  0.3607677E+02 -0.3031363E+00  0.1477596E+03  0.2663518E+01
  0.1879394E+02  0.4805135E+02  0.2576560E+01  0.3491504E+02 -0.3909591E+00  0.1403417E+03  0.2576561E+01
  0.1899495E+02  0.4565254E+02  0.2487731E+01  0.3374129E+02 -0.4774401E+00  0.1333352E+03  0.2487731E+01
  0.1919596E+02  0.4335033E+02  0.2397774E+01  0.3257828E+02 -0.5625743E+00  0.1266101E+03  0.2397775E+01
  0.1939697E+02  0.4112723E+02  0.2306427E+01  0.3140001E+02 -0.6439365E+00  0.1201169E+03  0.2306426E+01
  0.1959798E+02  0.3899485E+02  0.2213567E+01  0.3012926E+02 -0.7169099E+00  0.1138883E+03  0.2213569E+01
  0.1979899E+02  0.3695034E+02  0.2119315E+01  0.2863787E+02 -0.7683954E+00  0.1079167E+03  0.2119317E+01
  0.2000000E+02  0.3500437E+02  0.2022890E+01  0.2598793E+02 -0.7410030E+00  0.1022326E+03  0.2022890E+01
