VARIABLES="w (rad/s)"
"abs(F   1   1)" "angle(F   1   1)"
"abs(F   1   2)" "angle(F   1   2)"
"abs(F   1   3)" "angle(F   1   3)"
Zone t="FKforce - beta =   0.000",I=   100,F=POINT
  0.1000000E+00  0.1239580E+00 -0.1570767E+01  0.5127584E+03  0.1688591E-11  0.3620962E+00 -0.1570844E+01
  0.3010101E+00  0.1122260E+01 -0.1570800E+01  0.5117619E+03 -0.7222473E-11  0.3278266E+01 -0.1570801E+01
  0.5020202E+00  0.3116654E+01 -0.1570799E+01  0.5097651E+03 -0.4567411E-11  0.9104117E+01 -0.1570796E+01
  0.7030303E+00  0.6097690E+01 -0.1570797E+01  0.5067826E+03 -0.3905147E-11  0.1781210E+02 -0.1570797E+01
  0.9040404E+00  0.1005125E+02 -0.1570797E+01  0.5028244E+03 -0.1921639E-09  0.2936089E+02 -0.1570797E+01
  0.1105051E+01  0.1495859E+02 -0.1570796E+01  0.4979084E+03  0.2431610E-09  0.4369590E+02 -0.1570796E+01
  0.1306061E+01  0.2079647E+02 -0.1570796E+01  0.4920551E+03  0.2772835E-09  0.6074902E+02 -0.1570796E+01
  0.1507071E+01  0.2753724E+02 -0.1570796E+01  0.4852896E+03 -0.6448199E-09  0.8043962E+02 -0.1570796E+01
  0.1708081E+01  0.3514905E+02 -0.1570797E+01  0.4776423E+03 -0.1852341E-09  0.1026746E+03 -0.1570797E+01
  0.1909091E+01  0.4359599E+02 -0.1570796E+01  0.4691439E+03  0.5379766E-09  0.1273488E+03 -0.1570797E+01
  0.2110101E+01  0.5283773E+02 -0.1570796E+01  0.4598310E+03 -0.1701301E-09  0.1543450E+03 -0.1570796E+01
  0.2311111E+01  0.6283079E+02 -0.1570796E+01  0.4497443E+03 -0.2029367E-09  0.1835357E+03 -0.1570796E+01
  0.2512121E+01  0.7352788E+02 -0.1570796E+01  0.4389248E+03  0.1141543E-08  0.2147835E+03 -0.1570796E+01
  0.2713131E+01  0.8487849E+02 -0.1570796E+01  0.4274191E+03  0.5098730E-09  0.2479396E+03 -0.1570796E+01
  0.2914141E+01  0.9682915E+02 -0.1570796E+01  0.4152752E+03 -0.1045081E-08  0.2828486E+03 -0.1570796E+01
  0.3115151E+01  0.1093229E+03 -0.1570796E+01  0.4025428E+03 -0.1698182E-08  0.3193438E+03 -0.1570796E+01
  0.3316161E+01  0.1223012E+03 -0.1570796E+01  0.3892764E+03 -0.1674712E-09  0.3572541E+03 -0.1570796E+01
  0.3517171E+01  0.1357027E+03 -0.1570796E+01  0.3755288E+03  0.1200334E-08  0.3964006E+03 -0.1570796E+01
  0.3718182E+01  0.1494640E+03 -0.1570796E+01  0.3613570E+03 -0.1463902E-08  0.4365980E+03 -0.1570796E+01
  0.3919192E+01  0.1635202E+03 -0.1570796E+01  0.3468180E+03 -0.4264312E-08  0.4776581E+03 -0.1570796E+01
  0.4120202E+01  0.1778051E+03 -0.1570796E+01  0.3319707E+03 -0.1043622E-08  0.5193843E+03 -0.1570796E+01
  0.4321212E+01  0.1922516E+03 -0.1570796E+01  0.3168733E+03 -0.3291793E-09  0.5615831E+03 -0.1570796E+01
  0.4522222E+01  0.2067905E+03 -0.1570796E+01  0.3015867E+03  0.6176152E-10  0.6040530E+03 -0.1570796E+01
  0.4723232E+01  0.2213548E+03 -0.1570796E+01  0.2861700E+03  0.6378699E-09  0.6465959E+03 -0.1570796E+01
  0.4924242E+01  0.2358741E+03 -0.1570796E+01  0.2706816E+03  0.4789394E-08  0.6890079E+03 -0.1570796E+01
  0.5125252E+01  0.2502814E+03 -0.1570796E+01  0.2551812E+03  0.3270088E-08  0.7310908E+03 -0.1570796E+01
  0.5326262E+01  0.2645080E+03 -0.1570796E+01  0.2397274E+03  0.1958002E-08  0.7726489E+03 -0.1570796E+01
  0.5527273E+01  0.2784872E+03 -0.1570796E+01  0.2243760E+03  0.4599001E-08  0.8134800E+03 -0.1570796E+01
  0.5728283E+01  0.2921512E+03 -0.1570796E+01  0.2091832E+03  0.5057684E-08  0.8533953E+03 -0.1570796E+01
  0.5929293E+01  0.3054380E+03 -0.1570796E+01  0.1942030E+03  0.4872345E-08  0.8922034E+03 -0.1570796E+01
  0.6130303E+01  0.3182822E+03 -0.1570796E+01  0.1794870E+03  0.3652918E-08  0.9297230E+03 -0.1570796E+01
  0.6331313E+01  0.3306248E+03 -0.1570796E+01  0.1650856E+03 -0.3407437E-08  0.9657756E+03 -0.1570796E+01
  0.6532323E+01  0.3424059E+03 -0.1570796E+01  0.1510461E+03  0.1186303E-07  0.1000187E+04 -0.1570796E+01
  0.6733334E+01  0.3535702E+03 -0.1570796E+01  0.1374132E+03  0.9217447E-09  0.1032795E+04 -0.1570796E+01
  0.6934343E+01  0.3640631E+03 -0.1570796E+01  0.1242290E+03  0.1439390E-08  0.1063444E+04 -0.1570796E+01
  0.7135354E+01  0.3738338E+03 -0.1570796E+01  0.1115325E+03 -0.2064178E-07  0.1091987E+04 -0.1570796E+01
  0.7336363E+01  0.3828382E+03 -0.1570796E+01  0.9935978E+02  0.9860643E-08  0.1118288E+04 -0.1570796E+01
  0.7537374E+01  0.3910290E+03 -0.1570796E+01  0.8774284E+02  0.1872350E-07  0.1142211E+04 -0.1570796E+01
  0.7738384E+01  0.3983670E+03 -0.1570796E+01  0.7671125E+02 -0.2127038E-07  0.1163643E+04 -0.1570796E+01
  0.7939394E+01  0.4048170E+03 -0.1570796E+01  0.6629023E+02 -0.2781735E-07  0.1182484E+04 -0.1570796E+01
  0.8140405E+01  0.4103449E+03 -0.1570796E+01  0.5650124E+02 -0.3092252E-07  0.1198630E+04 -0.1570796E+01
  0.8341414E+01  0.4149233E+03 -0.1570796E+01  0.4736270E+02 -0.5804703E-07  0.1211997E+04 -0.1570796E+01
  0.8542424E+01  0.4185275E+03 -0.1570796E+01  0.3888883E+02 -0.2586420E-08  0.1222527E+04 -0.1570796E+01
  0.8743435E+01  0.4211386E+03 -0.1570796E+01  0.3108974E+02 -0.1138326E-07  0.1230150E+04 -0.1570796E+01
  0.8944445E+01  0.4227393E+03 -0.1570796E+01  0.2397198E+02 -0.6993082E-07  0.1234831E+04 -0.1570796E+01
  0.9145455E+01  0.4233205E+03 -0.1570796E+01  0.1753835E+02  0.1189487E-06  0.1236522E+04 -0.1570796E+01
  0.9346465E+01  0.4228736E+03 -0.1570796E+01  0.1178773E+02  0.1896187E-08  0.1235215E+04 -0.1570796E+01
  0.9547475E+01  0.4213987E+03 -0.1570796E+01  0.6715313E+01  0.3272999E-07  0.1230907E+04 -0.1570796E+01
  0.9748485E+01  0.4188973E+03 -0.1570796E+01  0.2312450E+01  0.4349623E-07  0.1223597E+04 -0.1570796E+01
  0.9949495E+01  0.4153763E+03 -0.1570796E+01  0.1433031E+01 -0.3141593E+01  0.1213312E+04 -0.1570796E+01
  0.1015051E+02  0.4108472E+03 -0.1570796E+01  0.4536464E+01  0.3141592E+01  0.1200083E+04 -0.1570796E+01
  0.1035151E+02  0.4053263E+03 -0.1570796E+01  0.7016574E+01 -0.3141592E+01  0.1183954E+04 -0.1570796E+01
  0.1055252E+02  0.3988349E+03 -0.1570796E+01  0.8895674E+01  0.3141593E+01  0.1164994E+04 -0.1570796E+01
  0.1075354E+02  0.3913979E+03 -0.1570796E+01  0.1019879E+02  0.3141593E+01  0.1143267E+04 -0.1570796E+01
  0.1095455E+02  0.3830429E+03 -0.1570796E+01  0.1095366E+02  0.3141593E+01  0.1118860E+04 -0.1570796E+01
  0.1115556E+02  0.3738046E+03 -0.1570796E+01  0.1119076E+02  0.3141593E+01  0.1091875E+04 -0.1570796E+01
  0.1135657E+02  0.3637201E+03 -0.1570796E+01  0.1094284E+02  0.3141593E+01  0.1062416E+04 -0.1570796E+01
  0.1155758E+02  0.3528293E+03 -0.1570796E+01  0.1024496E+02  0.3141593E+01  0.1030605E+04 -0.1570796E+01
  0.1175859E+02  0.3411793E+03 -0.1570796E+01  0.9133969E+01  0.3141592E+01  0.9965726E+03 -0.1570796E+01
  0.1195960E+02  0.3288148E+03 -0.1570796E+01  0.7648344E+01  0.3141593E+01  0.9604580E+03 -0.1570796E+01
  0.1216061E+02  0.3157916E+03 -0.1570796E+01  0.5827907E+01 -0.3141592E+01  0.9224155E+03 -0.1570796E+01
  0.1236162E+02  0.3021620E+03 -0.1570796E+01  0.3713657E+01 -0.3141592E+01  0.8826019E+03 -0.1570796E+01
  0.1256263E+02  0.2879836E+03 -0.1570796E+01  0.1347467E+01  0.3141590E+01  0.8411876E+03 -0.1570796E+01
  0.1276364E+02  0.2733178E+03 -0.1570796E+01  0.1228388E+01  0.1925743E-06  0.7983472E+03 -0.1570796E+01
  0.1296465E+02  0.2582258E+03 -0.1570796E+01  0.3971354E+01 -0.1627500E-06  0.7542644E+03 -0.1570796E+01
  0.1316566E+02  0.2427733E+03 -0.1570796E+01  0.6838956E+01  0.2071283E-06  0.7091266E+03 -0.1570796E+01
  0.1336667E+02  0.2270261E+03 -0.1570796E+01  0.9789066E+01 -0.2644866E-06  0.6631288E+03 -0.1570796E+01
  0.1356768E+02  0.2110532E+03 -0.1570796E+01  0.1278020E+02  0.7775473E-07  0.6164715E+03 -0.1570796E+01
  0.1376869E+02  0.1949222E+03 -0.1570796E+01  0.1577177E+02 -0.1240050E-08  0.5693530E+03 -0.1570796E+01
  0.1396970E+02  0.1787037E+03 -0.1570796E+01  0.1872461E+02  0.8084894E-07  0.5219804E+03 -0.1570796E+01
  0.1417071E+02  0.1624688E+03 -0.1570796E+01  0.2160083E+02  0.7542992E-07  0.4745579E+03 -0.1570796E+01
  0.1437172E+02  0.1462875E+03 -0.1570796E+01  0.2436444E+02  0.1339201E-06  0.4272924E+03 -0.1570796E+01
  0.1457273E+02  0.1302298E+03 -0.1570796E+01  0.2698147E+02  0.3151413E-07  0.3803893E+03 -0.1570796E+01
  0.1477374E+02  0.1143667E+03 -0.1570796E+01  0.2942027E+02  0.4526781E-08  0.3340544E+03 -0.1570796E+01
  0.1497475E+02  0.9876642E+02 -0.1570796E+01  0.3165172E+02 -0.1794868E-08  0.2884850E+03 -0.1570796E+01
  0.1517576E+02  0.8349637E+02 -0.1570796E+01  0.3364934E+02  0.7606412E-07  0.2438830E+03 -0.1570796E+01
  0.1537677E+02  0.6862231E+02 -0.1570796E+01  0.3538969E+02 -0.3710586E-08  0.2004367E+03 -0.1570796E+01
  0.1557778E+02  0.5420831E+02 -0.1570796E+01  0.3685245E+02  0.4267751E-07  0.1583346E+03 -0.1570796E+01
  0.1577879E+02  0.4031539E+02 -0.1570796E+01  0.3802045E+02  0.4125009E-07  0.1177543E+03 -0.1570796E+01
  0.1597980E+02  0.2700164E+02 -0.1570796E+01  0.3887992E+02  0.2194768E-07  0.7886578E+02 -0.1570796E+01
  0.1618081E+02  0.1432216E+02 -0.1570796E+01  0.3942077E+02  0.2970275E-07  0.4183018E+02 -0.1570796E+01
  0.1638182E+02  0.2328236E+01 -0.1570796E+01  0.3963638E+02  0.8687890E-08  0.6797071E+01 -0.1570796E+01
  0.1658283E+02  0.8932862E+01  0.1570796E+01  0.3952351E+02  0.5339254E-07  0.2609530E+02  0.1570796E+01
  0.1678384E+02  0.1941825E+02  0.1570796E+01  0.3908311E+02  0.3162742E-07  0.5672200E+02  0.1570796E+01
  0.1698485E+02  0.2908987E+02  0.1570796E+01  0.3831887E+02  0.3549678E-07  0.8497156E+02  0.1570796E+01
  0.1718586E+02  0.3791473E+02  0.1570796E+01  0.3723931E+02  0.2047935E-07  0.1107474E+03  0.1570796E+01
  0.1738687E+02  0.4586488E+02  0.1570796E+01  0.3585506E+02  0.9237234E-09  0.1339683E+03  0.1570796E+01
  0.1758788E+02  0.5291824E+02  0.1570796E+01  0.3418133E+02  0.3784884E-07  0.1545705E+03  0.1570796E+01
  0.1778889E+02  0.5905885E+02  0.1570796E+01  0.3223563E+02  0.3670975E-07  0.1725060E+03  0.1570796E+01
  0.1798990E+02  0.6427644E+02  0.1570796E+01  0.3003894E+02  0.1575383E-08  0.1877454E+03  0.1570796E+01
  0.1819091E+02  0.6856718E+02  0.1570796E+01  0.2761526E+02 -0.4522301E-08  0.2002777E+03  0.1570796E+01
  0.1839192E+02  0.7193373E+02  0.1570796E+01  0.2499087E+02  0.6579870E-08  0.2101101E+03  0.1570796E+01
  0.1859293E+02  0.7438483E+02  0.1570796E+01  0.2219436E+02  0.8364495E-07  0.2172686E+03  0.1570796E+01
  0.1879394E+02  0.7593594E+02  0.1570796E+01  0.1925647E+02  0.9459875E-07  0.2217988E+03  0.1570796E+01
  0.1899495E+02  0.7660931E+02  0.1570796E+01  0.1620952E+02 -0.6299614E-07  0.2237653E+03  0.1570796E+01
  0.1919596E+02  0.7643339E+02  0.1570796E+01  0.1308717E+02  0.1575326E-06  0.2232503E+03  0.1570796E+01
  0.1939697E+02  0.7544234E+02  0.1570796E+01  0.9924041E+01  0.1000198E-06  0.2203555E+03  0.1570796E+01
  0.1959798E+02  0.7367766E+02  0.1570796E+01  0.6755268E+01  0.2699828E-06  0.2152003E+03  0.1570796E+01
  0.1979899E+02  0.7118552E+02  0.1570796E+01  0.3616049E+01  0.5865679E-06  0.2079206E+03  0.1570796E+01
  0.2000000E+02  0.6801840E+02  0.1570796E+01  0.5414139E+00  0.2061137E-05  0.1986693E+03  0.1570796E+01
