 VARIABLES="Time (s)"
"AddedMass    1" "IRF    1"
"AddedMass    2" "IRF    2"
"AddedMass    3" "IRF    3"
Zone t="DoF    1",I=   800,F=POINT
  0.0000000E+00  0.4376556E+01  0.2879929E+03  0.1950899E-06 -0.9386837E-05  0.1278468E+02  0.8412115E+03
  0.1000000E-01  0.4376556E+01  0.2864023E+03  0.1950899E-06 -0.9296822E-05  0.1278468E+02  0.8365654E+03
  0.2000000E-01  0.4376556E+01  0.2816542E+03  0.1950899E-06 -0.9028798E-05  0.1278468E+02  0.8226971E+03
  0.3000000E-01  0.4376556E+01  0.2738197E+03  0.1950899E-06 -0.8588788E-05  0.1278468E+02  0.7998129E+03
  0.4000000E-01  0.4376556E+01  0.2630154E+03  0.1950899E-06 -0.7986662E-05  0.1278468E+02  0.7682546E+03
  0.5000000E-01  0.4376556E+01  0.2494017E+03  0.1950899E-06 -0.7235951E-05  0.1278468E+02  0.7284904E+03
  0.6000000E-01  0.4376556E+01  0.2331792E+03  0.1950899E-06 -0.6353503E-05  0.1278468E+02  0.6811059E+03
  0.7000000E-01  0.4376556E+01  0.2145850E+03  0.1950899E-06 -0.5359127E-05  0.1278468E+02  0.6267941E+03
  0.8000000E-01  0.4376556E+01  0.1938887E+03  0.1950899E-06 -0.4275151E-05  0.1278468E+02  0.5663419E+03
  0.9000000E-01  0.4376556E+01  0.1713862E+03  0.1950899E-06 -0.3125901E-05  0.1278468E+02  0.5006142E+03
  0.9999999E-01  0.4376556E+01  0.1473953E+03  0.1950899E-06 -0.1937180E-05  0.1278468E+02  0.4305390E+03
  0.1100000E+00  0.4376556E+01  0.1222491E+03  0.1950899E-06 -0.7356776E-06  0.1278468E+02  0.3570889E+03
  0.1200000E+00  0.4376556E+01  0.9629050E+02  0.1950899E-06  0.4516129E-06  0.1278468E+02  0.2812660E+03
  0.1300000E+00  0.4376556E+01  0.6986567E+02  0.1950899E-06  0.1598001E-05  0.1278468E+02  0.2040810E+03
  0.1400000E+00  0.4376556E+01  0.4331820E+02  0.1950899E-06  0.2677682E-05  0.1278468E+02  0.1265379E+03
  0.1500000E+00  0.4376556E+01  0.1698366E+02  0.1950899E-06  0.3666305E-05  0.1278468E+02  0.4961648E+02
  0.1600000E+00  0.4376556E+01 -0.8816483E+01  0.1950899E-06  0.4541512E-05  0.1278468E+02 -0.2574409E+02
  0.1700000E+00  0.4376556E+01 -0.3377934E+02  0.1950899E-06  0.5283412E-05  0.1278468E+02 -0.9865917E+02
  0.1800000E+00  0.4376556E+01 -0.5762532E+02  0.1950899E-06  0.5875014E-05  0.1278468E+02 -0.1683121E+03
  0.1900000E+00  0.4376556E+01 -0.8010200E+02  0.1950899E-06  0.6302614E-05  0.1278468E+02 -0.2339655E+03
  0.2000000E+00  0.4376556E+01 -0.1009871E+03  0.1950899E-06  0.6556051E-05  0.1278468E+02 -0.2949702E+03
  0.2100000E+00  0.4376556E+01 -0.1200912E+03  0.1950899E-06  0.6628944E-05  0.1278468E+02 -0.3507730E+03
  0.2200000E+00  0.4376556E+01 -0.1372592E+03  0.1950899E-06  0.6518812E-05  0.1278468E+02 -0.4009205E+03
  0.2300000E+00  0.4376556E+01 -0.1523714E+03  0.1950899E-06  0.6227134E-05  0.1278468E+02 -0.4450631E+03
  0.2400000E+00  0.4376556E+01 -0.1653434E+03  0.1950899E-06  0.5759302E-05  0.1278468E+02 -0.4829547E+03
  0.2500000E+00  0.4376556E+01 -0.1761261E+03  0.1950899E-06  0.5124499E-05  0.1278468E+02 -0.5144514E+03
  0.2600000E+00  0.4376556E+01 -0.1847040E+03  0.1950899E-06  0.4335513E-05  0.1278468E+02 -0.5395081E+03
  0.2700000E+00  0.4376556E+01 -0.1910935E+03  0.1950899E-06  0.3408457E-05  0.1278468E+02 -0.5581728E+03
  0.2800000E+00  0.4376556E+01 -0.1953409E+03  0.1950899E-06  0.2362424E-05  0.1278468E+02 -0.5705807E+03
  0.2900000E+00  0.4376556E+01 -0.1975191E+03  0.1950899E-06  0.1219111E-05  0.1278468E+02 -0.5769443E+03
  0.3000000E+00  0.4376556E+01 -0.1977248E+03  0.1950899E-06  0.2350833E-08  0.1278468E+02 -0.5775466E+03
  0.3100000E+00  0.4376556E+01 -0.1960751E+03  0.1950899E-06 -0.1262368E-05  0.1278468E+02 -0.5727290E+03
  0.3200000E+00  0.4376556E+01 -0.1927035E+03  0.1950899E-06 -0.2548406E-05  0.1278468E+02 -0.5628822E+03
  0.3300000E+00  0.4376556E+01 -0.1877570E+03  0.1950899E-06 -0.3828527E-05  0.1278468E+02 -0.5484350E+03
  0.3400000E+00  0.4376556E+01 -0.1813919E+03  0.1950899E-06 -0.5075438E-05  0.1278468E+02 -0.5298440E+03
  0.3500000E+00  0.4376556E+01 -0.1737705E+03  0.1950899E-06 -0.6262307E-05  0.1278468E+02 -0.5075829E+03
  0.3600000E+00  0.4376556E+01 -0.1650576E+03  0.1950899E-06 -0.7363325E-05  0.1278468E+02 -0.4821339E+03
  0.3700000E+00  0.4376556E+01 -0.1554179E+03  0.1950899E-06 -0.8354176E-05  0.1278468E+02 -0.4539774E+03
  0.3800000E+00  0.4376556E+01 -0.1450127E+03  0.1950899E-06 -0.9212526E-05  0.1278468E+02 -0.4235851E+03
  0.3900000E+00  0.4376556E+01 -0.1339980E+03  0.1950899E-06 -0.9918442E-05  0.1278468E+02 -0.3914119E+03
  0.4000000E+00  0.4376556E+01 -0.1225222E+03  0.1950899E-06 -0.1045478E-04  0.1278468E+02 -0.3578918E+03
  0.4100000E+00  0.4376556E+01 -0.1107243E+03  0.1950899E-06 -0.1080751E-04  0.1278468E+02 -0.3234309E+03
  0.4200000E+00  0.4376556E+01 -0.9873335E+02  0.1950899E-06 -0.1096596E-04  0.1278468E+02 -0.2884059E+03
  0.4300000E+00  0.4376556E+01 -0.8666708E+02  0.1950899E-06 -0.1092303E-04  0.1278468E+02 -0.2531609E+03
  0.4400000E+00  0.4376556E+01 -0.7463160E+02  0.1950899E-06 -0.1067534E-04  0.1278468E+02 -0.2180054E+03
  0.4500000E+00  0.4376556E+01 -0.6272147E+02  0.1950899E-06 -0.1022327E-04  0.1278468E+02 -0.1832161E+03
  0.4600000E+00  0.4376556E+01 -0.5101968E+02  0.1950899E-06 -0.9570944E-05  0.1278468E+02 -0.1490352E+03
  0.4700000E+00  0.4376556E+01 -0.3959829E+02  0.1950899E-06 -0.8726188E-05  0.1278468E+02 -0.1156733E+03
  0.4800000E+00  0.4376556E+01 -0.2851924E+02  0.1950899E-06 -0.7700377E-05  0.1278468E+02 -0.8331136E+02
  0.4900000E+00  0.4376556E+01 -0.1783506E+02  0.1950899E-06 -0.6508213E-05  0.1278468E+02 -0.5210271E+02
  0.5000000E+00  0.4376556E+01 -0.7589666E+01  0.1950899E-06 -0.5167487E-05  0.1278468E+02 -0.2217577E+02
  0.5100000E+00  0.4376556E+01  0.2180143E+01  0.1950899E-06 -0.3698742E-05  0.1278468E+02  0.6362133E+01
  0.5200000E+00  0.4376556E+01  0.1144419E+02  0.1950899E-06 -0.2124916E-05  0.1278468E+02  0.3342276E+02
  0.5300000E+00  0.4376556E+01  0.2017746E+02  0.1950899E-06 -0.4709304E-06  0.1278468E+02  0.5893289E+02
  0.5400000E+00  0.4376556E+01  0.2835948E+02  0.1950899E-06  0.1236756E-05  0.1278468E+02  0.8283285E+02
  0.5500000E+00  0.4376556E+01  0.3597340E+02  0.1950899E-06  0.2970632E-05  0.1278468E+02  0.1050735E+03
  0.5600000E+00  0.4376556E+01  0.4300522E+02  0.1950899E-06  0.4702570E-05  0.1278468E+02  0.1256138E+03
  0.5700000E+00  0.4376556E+01  0.4944345E+02  0.1950899E-06  0.6404422E-05  0.1278468E+02  0.1444202E+03
  0.5800000E+00  0.4376556E+01  0.5527862E+02  0.1950899E-06  0.8048438E-05  0.1278468E+02  0.1614650E+03
  0.5900000E+00  0.4376556E+01  0.6050296E+02  0.1950899E-06  0.9607834E-05  0.1278468E+02  0.1767256E+03
  0.6000000E+00  0.4376556E+01  0.6511055E+02  0.1950899E-06  0.1105722E-04  0.1278468E+02  0.1901847E+03
  0.6100000E+00  0.4376556E+01  0.6909718E+02  0.1950899E-06  0.1237312E-04  0.1278468E+02  0.2018298E+03
  0.6200000E+00  0.4376556E+01  0.7246057E+02  0.1950899E-06  0.1353434E-04  0.1278468E+02  0.2116546E+03
  0.6300000E+00  0.4376556E+01  0.7520072E+02  0.1950899E-06  0.1452243E-04  0.1278468E+02  0.2196589E+03
  0.6400000E+00  0.4376556E+01  0.7732014E+02  0.1950899E-06  0.1532198E-04  0.1278468E+02  0.2258500E+03
  0.6500000E+00  0.4376556E+01  0.7882441E+02  0.1950899E-06  0.1592094E-04  0.1278468E+02  0.2302442E+03
  0.6600000E+00  0.4376556E+01  0.7972222E+02  0.1950899E-06  0.1631086E-04  0.1278468E+02  0.2328669E+03
  0.6700000E+00  0.4376556E+01  0.8002597E+02  0.1950899E-06  0.1648700E-04  0.1278468E+02  0.2337546E+03
  0.6800000E+00  0.4376556E+01  0.7975207E+02  0.1950899E-06  0.1644854E-04  0.1278468E+02  0.2329548E+03
  0.6900000E+00  0.4376556E+01  0.7892114E+02  0.1950899E-06  0.1619852E-04  0.1278468E+02  0.2305278E+03
  0.7000000E+00  0.4376556E+01  0.7755795E+02  0.1950899E-06  0.1574382E-04  0.1278468E+02  0.2265463E+03
  0.7100000E+00  0.4376556E+01  0.7569169E+02  0.1950899E-06  0.1509508E-04  0.1278468E+02  0.2210953E+03
  0.7200000E+00  0.4376556E+01  0.7335582E+02  0.1950899E-06  0.1426647E-04  0.1278468E+02  0.2142726E+03
  0.7300000E+00  0.4376556E+01  0.7058774E+02  0.1950899E-06  0.1327542E-04  0.1278468E+02  0.2061874E+03
  0.7400000E+00  0.4376556E+01  0.6742846E+02  0.1950899E-06  0.1214233E-04  0.1278468E+02  0.1969594E+03
  0.7500000E+00  0.4376556E+01  0.6392221E+02  0.1950899E-06  0.1089018E-04  0.1278468E+02  0.1867180E+03
  0.7600000E+00  0.4376556E+01  0.6011580E+02  0.1950899E-06  0.9544028E-05  0.1278468E+02  0.1755998E+03
  0.7700000E+00  0.4376556E+01  0.5605789E+02  0.1950899E-06  0.8130581E-05  0.1278468E+02  0.1637469E+03
  0.7800000E+00  0.4376556E+01  0.5179842E+02  0.1950899E-06  0.6677610E-05  0.1278468E+02  0.1513053E+03
  0.7900000E+00  0.4376556E+01  0.4738759E+02  0.1950899E-06  0.5213426E-05  0.1278468E+02  0.1384215E+03
  0.8000000E+00  0.4376556E+01  0.4287524E+02  0.1950899E-06  0.3766264E-05  0.1278468E+02  0.1252411E+03
  0.8100000E+00  0.4376556E+01  0.3830991E+02  0.1950899E-06  0.2363722E-05  0.1278468E+02  0.1119060E+03
  0.8200000E+00  0.4376556E+01  0.3373811E+02  0.1950899E-06  0.1032189E-05  0.1278468E+02  0.9855192E+02
  0.8300000E+00  0.4376556E+01  0.2920363E+02  0.1950899E-06 -0.2037619E-06  0.1278468E+02  0.8530679E+02
  0.8400000E+00  0.4376556E+01  0.2474678E+02  0.1950899E-06 -0.1321866E-05  0.1278468E+02  0.7228847E+02
  0.8500000E+00  0.4376556E+01  0.2040392E+02  0.1950899E-06 -0.2302660E-05  0.1278468E+02  0.5960288E+02
  0.8600000E+00  0.4376556E+01  0.1620695E+02  0.1950899E-06 -0.3129919E-05  0.1278468E+02  0.4734353E+02
  0.8700000E+00  0.4376556E+01  0.1218301E+02  0.1950899E-06 -0.3791024E-05  0.1278468E+02  0.3558951E+02
  0.8800000E+00  0.4376556E+01  0.8354458E+01  0.1950899E-06 -0.4277240E-05  0.1278468E+02  0.2440621E+02
  0.8900000E+00  0.4376556E+01  0.4738471E+01  0.1950899E-06 -0.4583923E-05  0.1278468E+02  0.1384383E+02
  0.9000000E+00  0.4376556E+01  0.1347473E+01  0.1950899E-06 -0.4710661E-05  0.1278468E+02  0.3938501E+01
  0.9100000E+00  0.4376556E+01 -0.1810882E+01  0.1950899E-06 -0.4661264E-05  0.1278468E+02 -0.5287228E+01
  0.9200000E+00  0.4376556E+01 -0.4733245E+01  0.1950899E-06 -0.4443699E-05  0.1278468E+02 -0.1382366E+02
  0.9300000E+00  0.4376556E+01 -0.7420253E+01  0.1950899E-06 -0.4069921E-05  0.1278468E+02 -0.2167263E+02
  0.9400000E+00  0.4376556E+01 -0.9875844E+01  0.1950899E-06 -0.3555626E-05  0.1278468E+02 -0.2884561E+02
  0.9500000E+00  0.4376556E+01 -0.1210688E+02  0.1950899E-06 -0.2919857E-05  0.1278468E+02 -0.3536271E+02
  0.9600000E+00  0.4376556E+01 -0.1412246E+02  0.1950899E-06 -0.2184600E-05  0.1278468E+02 -0.4125043E+02
  0.9700000E+00  0.4376556E+01 -0.1593322E+02  0.1950899E-06 -0.1374252E-05  0.1278468E+02 -0.4653982E+02
  0.9800000E+00  0.4376556E+01 -0.1755079E+02  0.1950899E-06 -0.5150696E-06  0.1278468E+02 -0.5126492E+02
  0.9899999E+00  0.4376556E+01 -0.1898709E+02  0.1950899E-06  0.3654750E-06  0.1278468E+02 -0.5546049E+02
  0.1000000E+01  0.4376556E+01 -0.2025397E+02  0.1950899E-06  0.1239344E-05  0.1278468E+02 -0.5916122E+02
  0.1010000E+01  0.4376556E+01 -0.2136250E+02  0.1950899E-06  0.2078591E-05  0.1278468E+02 -0.6239935E+02
  0.1020000E+01  0.4376556E+01 -0.2232273E+02  0.1950899E-06  0.2856075E-05  0.1278468E+02 -0.6520425E+02
  0.1030000E+01  0.4376556E+01 -0.2314331E+02  0.1950899E-06  0.3546103E-05  0.1278468E+02 -0.6760120E+02
  0.1040000E+01  0.4376556E+01 -0.2383122E+02  0.1950899E-06  0.4125075E-05  0.1278468E+02 -0.6961069E+02
  0.1050000E+01  0.4376556E+01 -0.2439189E+02  0.1950899E-06  0.4572073E-05  0.1278468E+02 -0.7124826E+02
  0.1060000E+01  0.4376556E+01 -0.2482884E+02  0.1950899E-06  0.4869376E-05  0.1278468E+02 -0.7252464E+02
  0.1070000E+01  0.4376556E+01 -0.2514416E+02  0.1950899E-06  0.5002939E-05  0.1278468E+02 -0.7344565E+02
  0.1080000E+01  0.4376556E+01 -0.2533835E+02  0.1950899E-06  0.4962745E-05  0.1278468E+02 -0.7401284E+02
  0.1090000E+01  0.4376556E+01 -0.2541081E+02  0.1950899E-06  0.4743063E-05  0.1278468E+02 -0.7422445E+02
  0.1100000E+01  0.4376556E+01 -0.2536011E+02  0.1950899E-06  0.4342634E-05  0.1278468E+02 -0.7407632E+02
  0.1110000E+01  0.4376556E+01 -0.2518426E+02  0.1950899E-06  0.3764710E-05  0.1278468E+02 -0.7356258E+02
  0.1120000E+01  0.4376556E+01 -0.2488124E+02  0.1950899E-06  0.3017006E-05  0.1278468E+02 -0.7267750E+02
  0.1130000E+01  0.4376556E+01 -0.2444936E+02  0.1950899E-06  0.2111527E-05  0.1278468E+02 -0.7141598E+02
  0.1140000E+01  0.4376556E+01 -0.2388763E+02  0.1950899E-06  0.1064285E-05  0.1278468E+02 -0.6977517E+02
  0.1150000E+01  0.4376556E+01 -0.2319617E+02  0.1950899E-06 -0.1050540E-06  0.1278468E+02 -0.6775546E+02
  0.1160000E+01  0.4376556E+01 -0.2237654E+02  0.1950899E-06 -0.1373674E-05  0.1278468E+02 -0.6536142E+02
  0.1170000E+01  0.4376556E+01 -0.2143194E+02  0.1950899E-06 -0.2716117E-05  0.1278468E+02 -0.6260230E+02
  0.1180000E+01  0.4376556E+01 -0.2036754E+02  0.1950899E-06 -0.4104937E-05  0.1278468E+02 -0.5949336E+02
  0.1190000E+01  0.4376556E+01 -0.1919052E+02  0.1950899E-06 -0.5511324E-05  0.1278468E+02 -0.5605541E+02
  0.1200000E+01  0.4376556E+01 -0.1791008E+02  0.1950899E-06 -0.6905852E-05  0.1278468E+02 -0.5231541E+02
  0.1210000E+01  0.4376556E+01 -0.1653752E+02  0.1950899E-06 -0.8259135E-05  0.1278468E+02 -0.4830635E+02
  0.1220000E+01  0.4376556E+01 -0.1508596E+02  0.1950899E-06 -0.9542597E-05  0.1278468E+02 -0.4406656E+02
  0.1230000E+01  0.4376556E+01 -0.1357027E+02  0.1950899E-06 -0.1072910E-04  0.1278468E+02 -0.3963944E+02
  0.1240000E+01  0.4376556E+01 -0.1200671E+02  0.1950899E-06 -0.1179364E-04  0.1278468E+02 -0.3507249E+02
  0.1250000E+01  0.4376556E+01 -0.1041259E+02  0.1950899E-06 -0.1271397E-04  0.1278468E+02 -0.3041628E+02
  0.1260000E+01  0.4376556E+01 -0.8805894E+01  0.1950899E-06 -0.1347101E-04  0.1278468E+02 -0.2572332E+02
  0.1270000E+01  0.4376556E+01 -0.7204922E+01  0.1950899E-06 -0.1404942E-04  0.1278468E+02 -0.2104702E+02
  0.1280000E+01  0.4376556E+01 -0.5627764E+01  0.1950899E-06 -0.1443787E-04  0.1278468E+02 -0.1644033E+02
  0.1290000E+01  0.4376556E+01 -0.4091879E+01  0.1950899E-06 -0.1462927E-04  0.1278468E+02 -0.1195414E+02
  0.1300000E+01  0.4376556E+01 -0.2613757E+01  0.1950899E-06 -0.1462095E-04  0.1278468E+02 -0.7636632E+01
  0.1310000E+01  0.4376556E+01 -0.1208343E+01  0.1950899E-06 -0.1441463E-04  0.1278468E+02 -0.3531486E+01
  0.1320000E+01  0.4376556E+01  0.1110585E+00  0.1950899E-06 -0.1401637E-04  0.1278468E+02  0.3224688E+00
  0.1330000E+01  0.4376556E+01  0.1333341E+01  0.1950899E-06 -0.1343636E-04  0.1278468E+02  0.3892765E+01
  0.1340000E+01  0.4376556E+01  0.2449600E+01  0.1950899E-06 -0.1268858E-04  0.1278468E+02  0.7153412E+01
  0.1350000E+01  0.4376556E+01  0.3453462E+01  0.1950899E-06 -0.1179045E-04  0.1278468E+02  0.1008578E+02
  0.1360000E+01  0.4376556E+01  0.4341005E+01  0.1950899E-06 -0.1076234E-04  0.1278468E+02  0.1267841E+02
  0.1370000E+01  0.4376556E+01  0.5110848E+01  0.1950899E-06 -0.9627041E-05  0.1278468E+02  0.1492727E+02
  0.1380000E+01  0.4376556E+01  0.5764124E+01  0.1950899E-06 -0.8409136E-05  0.1278468E+02  0.1683568E+02
  0.1390000E+01  0.4376556E+01  0.6304134E+01  0.1950899E-06 -0.7134403E-05  0.1278468E+02  0.1841325E+02
  0.1400000E+01  0.4376556E+01  0.6736257E+01  0.1950899E-06 -0.5829164E-05  0.1278468E+02  0.1967567E+02
  0.1410000E+01  0.4376556E+01  0.7067756E+01  0.1950899E-06 -0.4519623E-05  0.1278468E+02  0.2064421E+02
  0.1420000E+01  0.4376556E+01  0.7307179E+01  0.1950899E-06 -0.3231266E-05  0.1278468E+02  0.2134379E+02
  0.1430000E+01  0.4376556E+01  0.7464359E+01  0.1950899E-06 -0.1988217E-05  0.1278468E+02  0.2180312E+02
  0.1440000E+01  0.4376556E+01  0.7549654E+01  0.1950899E-06 -0.8127406E-06  0.1278468E+02  0.2205247E+02
  0.1450000E+01  0.4376556E+01  0.7573886E+01  0.1950899E-06  0.2752822E-06  0.1278468E+02  0.2212344E+02
  0.1460000E+01  0.4376556E+01  0.7547760E+01  0.1950899E-06  0.1258754E-05  0.1278468E+02  0.2204732E+02
  0.1470000E+01  0.4376556E+01  0.7481699E+01  0.1950899E-06  0.2123661E-05  0.1278468E+02  0.2185453E+02
  0.1480000E+01  0.4376556E+01  0.7385242E+01  0.1950899E-06  0.2859374E-05  0.1278468E+02  0.2157287E+02
  0.1490000E+01  0.4376556E+01  0.7267047E+01  0.1950899E-06  0.3458706E-05  0.1278468E+02  0.2122770E+02
  0.1500000E+01  0.4376556E+01  0.7134562E+01  0.1950899E-06  0.3918055E-05  0.1278468E+02  0.2084081E+02
  0.1510000E+01  0.4376556E+01  0.6993858E+01  0.1950899E-06  0.4237277E-05  0.1278468E+02  0.2042982E+02
  0.1520000E+01  0.4376556E+01  0.6849487E+01  0.1950899E-06  0.4419599E-05  0.1278468E+02  0.2000809E+02
  0.1530000E+01  0.4376556E+01  0.6704523E+01  0.1950899E-06  0.4471380E-05  0.1278468E+02  0.1958463E+02
  0.1540000E+01  0.4376556E+01  0.6560583E+01  0.1950899E-06  0.4401814E-05  0.1278468E+02  0.1916411E+02
  0.1550000E+01  0.4376556E+01  0.6417814E+01  0.1950899E-06  0.4222569E-05  0.1278468E+02  0.1874700E+02
  0.1560000E+01  0.4376556E+01  0.6275243E+01  0.1950899E-06  0.3947398E-05  0.1278468E+02  0.1833046E+02
  0.1570000E+01  0.4376556E+01  0.6130665E+01  0.1950899E-06  0.3591650E-05  0.1278468E+02  0.1790803E+02
  0.1580000E+01  0.4376556E+01  0.5981175E+01  0.1950899E-06  0.3171816E-05  0.1278468E+02  0.1747127E+02
  0.1590000E+01  0.4376556E+01  0.5823161E+01  0.1950899E-06  0.2705057E-05  0.1278468E+02  0.1700959E+02
  0.1600000E+01  0.4376556E+01  0.5652756E+01  0.1950899E-06  0.2208696E-05  0.1278468E+02  0.1651174E+02
  0.1610000E+01  0.4376556E+01  0.5466009E+01  0.1950899E-06  0.1699756E-05  0.1278468E+02  0.1596613E+02
  0.1620000E+01  0.4376556E+01  0.5259080E+01  0.1950899E-06  0.1194552E-05  0.1278468E+02  0.1536159E+02
  0.1630000E+01  0.4376556E+01  0.5028719E+01  0.1950899E-06  0.7082626E-06  0.1278468E+02  0.1468862E+02
  0.1640000E+01  0.4376556E+01  0.4772229E+01  0.1950899E-06  0.2546148E-06  0.1278468E+02  0.1393940E+02
  0.1650000E+01  0.4376556E+01  0.4487712E+01  0.1950899E-06 -0.1544252E-06  0.1278468E+02  0.1310830E+02
  0.1660000E+01  0.4376556E+01  0.4174336E+01  0.1950899E-06 -0.5088487E-06  0.1278468E+02  0.1219290E+02
  0.1670000E+01  0.4376556E+01  0.3832212E+01  0.1950899E-06 -0.8007793E-06  0.1278468E+02  0.1119358E+02
  0.1680000E+01  0.4376556E+01  0.3462642E+01  0.1950899E-06 -0.1024542E-05  0.1278468E+02  0.1011411E+02
  0.1690000E+01  0.4376556E+01  0.3067991E+01  0.1950899E-06 -0.1176683E-05  0.1278468E+02  0.8961375E+01
  0.1700000E+01  0.4376556E+01  0.2651563E+01  0.1950899E-06 -0.1255942E-05  0.1278468E+02  0.7745120E+01
  0.1710000E+01  0.4376556E+01  0.2217688E+01  0.1950899E-06 -0.1263106E-05  0.1278468E+02  0.6477853E+01
  0.1720000E+01  0.4376556E+01  0.1771486E+01  0.1950899E-06 -0.1200882E-05  0.1278468E+02  0.5174592E+01
  0.1730000E+01  0.4376556E+01  0.1318640E+01  0.1950899E-06 -0.1073690E-05  0.1278468E+02  0.3851946E+01
  0.1740000E+01  0.4376556E+01  0.8652217E+00  0.1950899E-06 -0.8874051E-06  0.1278468E+02  0.2527655E+01
  0.1750000E+01  0.4376556E+01  0.4175999E+00  0.1950899E-06 -0.6491133E-06  0.1278468E+02  0.1220246E+01
  0.1760000E+01  0.4376556E+01 -0.1793670E-01  0.1950899E-06 -0.3667905E-06  0.1278468E+02 -0.5181419E-01
  0.1770000E+01  0.4376556E+01 -0.4353346E+00  0.1950899E-06 -0.4904574E-07  0.1278468E+02 -0.1270925E+01
  0.1780000E+01  0.4376556E+01 -0.8288981E+00  0.1950899E-06  0.2951635E-06  0.1278468E+02 -0.2420434E+01
  0.1790000E+01  0.4376556E+01 -0.1193664E+01  0.1950899E-06  0.6568308E-06  0.1278468E+02 -0.3485838E+01
  0.1800000E+01  0.4376556E+01 -0.1525382E+01  0.1950899E-06  0.1027139E-05  0.1278468E+02 -0.4454735E+01
  0.1810000E+01  0.4376556E+01 -0.1820670E+01  0.1950899E-06  0.1397682E-05  0.1278468E+02 -0.5317238E+01
  0.1820000E+01  0.4376556E+01 -0.2077215E+01  0.1950899E-06  0.1760669E-05  0.1278468E+02 -0.6066576E+01
  0.1830000E+01  0.4376556E+01 -0.2293653E+01  0.1950899E-06  0.2109074E-05  0.1278468E+02 -0.6698823E+01
  0.1840000E+01  0.4376556E+01 -0.2469688E+01  0.1950899E-06  0.2436745E-05  0.1278468E+02 -0.7213074E+01
  0.1850000E+01  0.4376556E+01 -0.2606050E+01  0.1950899E-06  0.2738488E-05  0.1278468E+02 -0.7611436E+01
  0.1860000E+01  0.4376556E+01 -0.2704385E+01  0.1950899E-06  0.3010111E-05  0.1278468E+02 -0.7898774E+01
  0.1870000E+01  0.4376556E+01 -0.2767118E+01  0.1950899E-06  0.3248384E-05  0.1278468E+02 -0.8082103E+01
  0.1880000E+01  0.4376556E+01 -0.2797434E+01  0.1950899E-06  0.3451046E-05  0.1278468E+02 -0.8170779E+01
  0.1890000E+01  0.4376556E+01 -0.2798967E+01  0.1950899E-06  0.3616726E-05  0.1278468E+02 -0.8175413E+01
  0.1900000E+01  0.4376556E+01 -0.2775806E+01  0.1950899E-06  0.3744846E-05  0.1278468E+02 -0.8107880E+01
  0.1910000E+01  0.4376556E+01 -0.2732084E+01  0.1950899E-06  0.3835505E-05  0.1278468E+02 -0.7980333E+01
  0.1920000E+01  0.4376556E+01 -0.2672063E+01  0.1950899E-06  0.3889384E-05  0.1278468E+02 -0.7805165E+01
  0.1930000E+01  0.4376556E+01 -0.2599865E+01  0.1950899E-06  0.3907605E-05  0.1278468E+02 -0.7594397E+01
  0.1940000E+01  0.4376556E+01 -0.2519042E+01  0.1950899E-06  0.3891619E-05  0.1278468E+02 -0.7358451E+01
  0.1950000E+01  0.4376556E+01 -0.2433029E+01  0.1950899E-06  0.3843083E-05  0.1278468E+02 -0.7107315E+01
  0.1960000E+01  0.4376556E+01 -0.2344407E+01  0.1950899E-06  0.3763761E-05  0.1278468E+02 -0.6848581E+01
  0.1970000E+01  0.4376556E+01 -0.2255363E+01  0.1950899E-06  0.3655439E-05  0.1278468E+02 -0.6588584E+01
  0.1980000E+01  0.4376556E+01 -0.2167261E+01  0.1950899E-06  0.3519866E-05  0.1278468E+02 -0.6331289E+01
  0.1990000E+01  0.4376556E+01 -0.2080784E+01  0.1950899E-06  0.3358707E-05  0.1278468E+02 -0.6078756E+01
  0.2000000E+01  0.4376556E+01 -0.1996079E+01  0.1950899E-06  0.3173525E-05  0.1278468E+02 -0.5831363E+01
  0.2010000E+01  0.4376556E+01 -0.1912592E+01  0.1950899E-06  0.2965786E-05  0.1278468E+02 -0.5587484E+01
  0.2020000E+01  0.4376556E+01 -0.1829309E+01  0.1950899E-06  0.2736890E-05  0.1278468E+02 -0.5344191E+01
  0.2030000E+01  0.4376556E+01 -0.1744799E+01  0.1950899E-06  0.2488202E-05  0.1278468E+02 -0.5097310E+01
  0.2040000E+01  0.4376556E+01 -0.1657396E+01  0.1950899E-06  0.2221126E-05  0.1278468E+02 -0.4841972E+01
  0.2050000E+01  0.4376556E+01 -0.1565265E+01  0.1950899E-06  0.1937154E-05  0.1278468E+02 -0.4572797E+01
  0.2060000E+01  0.4376556E+01 -0.1466695E+01  0.1950899E-06  0.1637983E-05  0.1278468E+02 -0.4284771E+01
  0.2070000E+01  0.4376556E+01 -0.1360007E+01  0.1950899E-06  0.1325543E-05  0.1278468E+02 -0.3973074E+01
  0.2080000E+01  0.4376556E+01 -0.1243890E+01  0.1950899E-06  0.1002100E-05  0.1278468E+02 -0.3633793E+01
  0.2090000E+01  0.4376556E+01 -0.1117529E+01  0.1950899E-06  0.6703065E-06  0.1278468E+02 -0.3264583E+01
  0.2100000E+01  0.4376556E+01 -0.9804261E+00  0.1950899E-06  0.3332427E-06  0.1278468E+02 -0.2864012E+01
  0.2110000E+01  0.4376556E+01 -0.8328174E+00  0.1950899E-06 -0.5540994E-08  0.1278468E+02 -0.2432753E+01
  0.2120000E+01  0.4376556E+01 -0.6755488E+00  0.1950899E-06 -0.3420514E-06  0.1278468E+02 -0.1973257E+01
  0.2130000E+01  0.4376556E+01 -0.5100121E+00  0.1950899E-06 -0.6718325E-06  0.1278468E+02 -0.1489636E+01
  0.2140000E+01  0.4376556E+01 -0.3382799E+00  0.1950899E-06 -0.9900606E-06  0.1278468E+02 -0.9879501E+00
  0.2150000E+01  0.4376556E+01 -0.1630380E+00  0.1950899E-06 -0.1291585E-05  0.1278468E+02 -0.4759839E+00
  0.2160000E+01  0.4376556E+01  0.1266023E-01  0.1950899E-06 -0.1571035E-05  0.1278468E+02  0.3725219E-01
  0.2170000E+01  0.4376556E+01  0.1853995E+00  0.1950899E-06 -0.1822976E-05  0.1278468E+02  0.5418661E+00
  0.2180000E+01  0.4376556E+01  0.3515179E+00  0.1950899E-06 -0.2042013E-05  0.1278468E+02  0.1027121E+01
  0.2190000E+01  0.4376556E+01  0.5072642E+00  0.1950899E-06 -0.2222960E-05  0.1278468E+02  0.1482058E+01
  0.2200000E+01  0.4376556E+01  0.6489613E+00  0.1950899E-06 -0.2361050E-05  0.1278468E+02  0.1895959E+01
  0.2210000E+01  0.4376556E+01  0.7731716E+00  0.1950899E-06 -0.2452050E-05  0.1278468E+02  0.2258746E+01
  0.2220000E+01  0.4376556E+01  0.8769355E+00  0.1950899E-06 -0.2492485E-05  0.1278468E+02  0.2561827E+01
  0.2230000E+01  0.4376556E+01  0.9577240E+00  0.1950899E-06 -0.2479766E-05  0.1278468E+02  0.2797766E+01
  0.2240000E+01  0.4376556E+01  0.1013638E+01  0.1950899E-06 -0.2412322E-05  0.1278468E+02  0.2961040E+01
  0.2250000E+01  0.4376556E+01  0.1043731E+01  0.1950899E-06 -0.2289788E-05  0.1278468E+02  0.3048906E+01
  0.2260000E+01  0.4376556E+01  0.1047749E+01  0.1950899E-06 -0.2113024E-05  0.1278468E+02  0.3060598E+01
  0.2270000E+01  0.4376556E+01  0.1026319E+01  0.1950899E-06 -0.1884221E-05  0.1278468E+02  0.2997917E+01
  0.2280000E+01  0.4376556E+01  0.9809659E+00  0.1950899E-06 -0.1606898E-05  0.1278468E+02  0.2865416E+01
  0.2290000E+01  0.4376556E+01  0.9140762E+00  0.1950899E-06 -0.1285910E-05  0.1278468E+02  0.2669969E+01
  0.2300000E+01  0.4376556E+01  0.8287784E+00  0.1950899E-06 -0.9273418E-06  0.1278468E+02  0.2420772E+01
  0.2310000E+01  0.4376556E+01  0.7289038E+00  0.1950899E-06 -0.5384538E-06  0.1278468E+02  0.2128995E+01
  0.2320000E+01  0.4376556E+01  0.6188320E+00  0.1950899E-06 -0.1275070E-06  0.1278468E+02  0.1807429E+01
  0.2330000E+01  0.4376556E+01  0.5032173E+00  0.1950899E-06  0.2964105E-06  0.1278468E+02  0.1469702E+01
  0.2340000E+01  0.4376556E+01  0.3871306E+00  0.1950899E-06  0.7235976E-06  0.1278468E+02  0.1130577E+01
  0.2350000E+01  0.4376556E+01  0.2755098E+00  0.1950899E-06  0.1143978E-05  0.1278468E+02  0.8045243E+00
  0.2360000E+01  0.4376556E+01  0.1731484E+00  0.1950899E-06  0.1547389E-05  0.1278468E+02  0.5055239E+00
  0.2370000E+01  0.4376556E+01  0.8444925E-01  0.1950899E-06  0.1923803E-05  0.1278468E+02  0.2464435E+00
  0.2380000E+01  0.4376556E+01  0.1344718E-01  0.1950899E-06  0.2263686E-05  0.1278468E+02  0.3903347E-01
  0.2390000E+01  0.4376556E+01 -0.3678529E-01  0.1950899E-06  0.2558206E-05  0.1278468E+02 -0.1076711E+00
  0.2400000E+01  0.4376556E+01 -0.6387559E-01  0.1950899E-06  0.2799530E-05  0.1278468E+02 -0.1867780E+00
  0.2410000E+01  0.4376556E+01 -0.6632193E-01  0.1950899E-06  0.2981049E-05  0.1278468E+02 -0.1939252E+00
  0.2420000E+01  0.4376556E+01 -0.4383733E-01  0.1950899E-06  0.3097610E-05  0.1278468E+02 -0.1281952E+00
  0.2430000E+01  0.4376556E+01  0.2962158E-02  0.1950899E-06  0.3145665E-05  0.1278468E+02  0.8517113E-02
  0.2440000E+01  0.4376556E+01  0.7238567E-01  0.1950899E-06  0.3123409E-05  0.1278468E+02  0.2113043E+00
  0.2450000E+01  0.4376556E+01  0.1616594E+00  0.1950899E-06  0.3030898E-05  0.1278468E+02  0.4721128E+00
  0.2460000E+01  0.4376556E+01  0.2672694E+00  0.1950899E-06  0.2870004E-05  0.1278468E+02  0.7806385E+00
  0.2470000E+01  0.4376556E+01  0.3848697E+00  0.1950899E-06  0.2644429E-05  0.1278468E+02  0.1124177E+01
  0.2480000E+01  0.4376556E+01  0.5093558E+00  0.1950899E-06  0.2359653E-05  0.1278468E+02  0.1487820E+01
  0.2490000E+01  0.4376556E+01  0.6353654E+00  0.1950899E-06  0.2022744E-05  0.1278468E+02  0.1855932E+01
  0.2500000E+01  0.4376556E+01  0.7571965E+00  0.1950899E-06  0.1642236E-05  0.1278468E+02  0.2211824E+01
  0.2510000E+01  0.4376556E+01  0.8691881E+00  0.1950899E-06  0.1227813E-05  0.1278468E+02  0.2538983E+01
  0.2520000E+01  0.4376556E+01  0.9658613E+00  0.1950899E-06  0.7901600E-06  0.1278468E+02  0.2821394E+01
  0.2530000E+01  0.4376556E+01  0.1042194E+01  0.1950899E-06  0.3405695E-06  0.1278468E+02  0.3044395E+01
  0.2540000E+01  0.4376556E+01  0.1093699E+01  0.1950899E-06 -0.1093294E-06  0.1278468E+02  0.3194860E+01
  0.2550000E+01  0.4376556E+01  0.1116902E+01  0.1950899E-06 -0.5478993E-06  0.1278468E+02  0.3262680E+01
  0.2560000E+01  0.4376556E+01  0.1109113E+01  0.1950899E-06 -0.9638484E-06  0.1278468E+02  0.3239939E+01
  0.2570000E+01  0.4376556E+01  0.1068779E+01  0.1950899E-06 -0.1346521E-05  0.1278468E+02  0.3122156E+01
  0.2580000E+01  0.4376556E+01  0.9954889E+00  0.1950899E-06 -0.1686221E-05  0.1278468E+02  0.2908101E+01
  0.2590000E+01  0.4376556E+01  0.8902093E+00  0.1950899E-06 -0.1974500E-05  0.1278468E+02  0.2600581E+01
  0.2600000E+01  0.4376556E+01  0.7548223E+00  0.1950899E-06 -0.2204358E-05  0.1278468E+02  0.2205158E+01
  0.2610000E+01  0.4376556E+01  0.5925837E+00  0.1950899E-06 -0.2370464E-05  0.1278468E+02  0.1731254E+01
  0.2620000E+01  0.4376556E+01  0.4077973E+00  0.1950899E-06 -0.2469320E-05  0.1278468E+02  0.1191500E+01
  0.2630000E+01  0.4376556E+01  0.2055410E+00  0.1950899E-06 -0.2499275E-05  0.1278468E+02  0.6007292E+00
  0.2640000E+01  0.4376556E+01 -0.8189643E-02  0.1950899E-06 -0.2460663E-05  0.1278468E+02 -0.2357053E-01
  0.2650000E+01  0.4376556E+01 -0.2269842E+00  0.1950899E-06 -0.2355673E-05  0.1278468E+02 -0.6626962E+00
  0.2660000E+01  0.4376556E+01 -0.4440582E+00  0.1950899E-06 -0.2188367E-05  0.1278468E+02 -0.1296771E+01
  0.2670000E+01  0.4376556E+01 -0.6525120E+00  0.1950899E-06 -0.1964439E-05  0.1278468E+02 -0.1905689E+01
  0.2680000E+01  0.4376556E+01 -0.8456536E+00  0.1950899E-06 -0.1691106E-05  0.1278468E+02 -0.2469887E+01
  0.2690000E+01  0.4376556E+01 -0.1017220E+01  0.1950899E-06 -0.1376818E-05  0.1278468E+02 -0.2971051E+01
  0.2700000E+01  0.4376556E+01 -0.1161420E+01  0.1950899E-06 -0.1031016E-05  0.1278468E+02 -0.3392313E+01
  0.2710000E+01  0.4376556E+01 -0.1273583E+01  0.1950899E-06 -0.6638734E-06  0.1278468E+02 -0.3719964E+01
  0.2720000E+01  0.4376556E+01 -0.1349771E+01  0.1950899E-06 -0.2858687E-06  0.1278468E+02 -0.3942569E+01
  0.2730000E+01  0.4376556E+01 -0.1387390E+01  0.1950899E-06  0.9242856E-07  0.1278468E+02 -0.4052509E+01
  0.2740000E+01  0.4376556E+01 -0.1385099E+01  0.1950899E-06  0.4607398E-06  0.1278468E+02 -0.4045863E+01
  0.2750000E+01  0.4376556E+01 -0.1342812E+01  0.1950899E-06  0.8093671E-06  0.1278468E+02 -0.3922407E+01
  0.2760000E+01  0.4376556E+01 -0.1261825E+01  0.1950899E-06  0.1129478E-05  0.1278468E+02 -0.3685900E+01
  0.2770000E+01  0.4376556E+01 -0.1144739E+01  0.1950899E-06  0.1413376E-05  0.1278468E+02 -0.3343956E+01
  0.2780000E+01  0.4376556E+01 -0.9954195E+00  0.1950899E-06  0.1654717E-05  0.1278468E+02 -0.2907844E+01