VARIABLES="w (rad/s)"
"A   1   1" "B   1   1"
"A   1   2" "B   1   2"
"A   1   3" "B   1   3"
Zone t="Motion of body    1 in DoF   1",I=    32,F=POINT
  0.1000000E+00  0.1049949E+06  0.2043752E-02  0.8551404E-02  0.1669582E-04  0.1529816E+06  0.3098160E-02
  0.2000000E+00  0.1063667E+06  0.2629911E+00  0.1216374E-01  0.1747997E-03  0.1550377E+06  0.3983738E+00
  0.3000000E+00  0.1074281E+06  0.4431408E+01  0.1460910E-02  0.1353439E-03  0.1564341E+06  0.6696430E+01
  0.4000000E+00  0.1094307E+06  0.3262150E+02  0.1547083E-01  0.5194013E-03  0.1590424E+06  0.4911876E+02
  0.5000000E+00  0.1119670E+06  0.1521237E+03 -0.1563191E-01 -0.1539989E-02  0.1623955E+06  0.2280261E+03
  0.6000001E+00  0.1152802E+06  0.5312817E+03 -0.7346768E-02  0.1322615E-02  0.1668113E+06  0.7919919E+03
  0.7000000E+00  0.1202643E+06  0.1523823E+04 -0.4695399E-02 -0.2618588E-02  0.1732938E+06  0.2255085E+04
  0.8000001E+00  0.1261190E+06  0.3770759E+04 -0.2143562E-01 -0.1078771E-01  0.1810667E+06  0.5536084E+04
  0.9000000E+00  0.1332454E+06  0.8349676E+04  0.5360842E-02  0.1482957E-01  0.1902073E+06  0.1213824E+05
  0.1000000E+01  0.1412124E+06  0.1685853E+05 -0.5523443E-02 -0.1555067E-01  0.2003209E+06  0.2424044E+05
  0.1100000E+01  0.1491325E+06  0.3149508E+05 -0.7490678E-02  0.7311225E-02  0.2096760E+06  0.4468791E+05
  0.1200000E+01  0.1540423E+06  0.5436918E+05 -0.1195758E-01 -0.7518023E-02  0.2146033E+06  0.7604929E+05
  0.1300000E+01  0.1542076E+06  0.8672377E+05 -0.1657248E-01 -0.2716538E-01  0.2123633E+06  0.1192932E+06
  0.1400000E+01  0.1457446E+06  0.1263268E+06 -0.4979543E-03 -0.1056737E-01  0.1982482E+06  0.1705238E+06
  0.1500000E+01  0.1275828E+06  0.1665804E+06 -0.4562537E-02  0.1242042E-02  0.1714474E+06  0.2200675E+06
  0.1600000E+01  0.1020668E+06  0.1982696E+06 -0.1202375E-02 -0.6878376E-03  0.1360378E+06  0.2556550E+06
  0.1700000E+01  0.7446036E+05  0.2146776E+06  0.3444377E-02 -0.1308918E-03  0.9956177E+05  0.2693608E+06
  0.1800000E+01  0.4998784E+05  0.2152608E+06 -0.5364551E-02 -0.2704889E-02  0.6882525E+05  0.2619795E+06
  0.1900000E+01  0.3129740E+05  0.2038512E+06 -0.8790116E-03  0.2069592E-02  0.4683515E+05  0.2397217E+06
  0.2000000E+01  0.1867364E+05  0.1856249E+06  0.7329643E-02 -0.5991280E-02  0.3337862E+05  0.2099609E+06
  0.2100000E+01  0.1118622E+05  0.1644350E+06 -0.1716784E-02  0.3819913E-03  0.2678218E+05  0.1781122E+06
  0.2200000E+01  0.7471475E+04  0.1429171E+06 -0.5951415E-02 -0.3655650E-02  0.2500449E+05  0.1473698E+06
  0.2300000E+01  0.6410580E+04  0.1225687E+06 -0.4108885E-02  0.9935107E-03  0.2641141E+05  0.1195325E+06
  0.2400000E+01  0.7119853E+04  0.1040699E+06 -0.7909536E-02  0.3705392E-02  0.2974640E+05  0.9530917E+05
  0.2500000E+01  0.8916464E+04  0.8767014E+05 -0.1330252E-01  0.1286155E-01  0.3414330E+05  0.7476928E+05
  0.2600000E+01  0.1135630E+05  0.7341668E+05  0.7899267E-02  0.1047489E-01  0.3899499E+05  0.5778254E+05
  0.2700000E+01  0.1411786E+05  0.6124023E+05 -0.7250927E-02 -0.2040986E-01  0.4389040E+05  0.4404898E+05
  0.2800000E+01  0.1697076E+05  0.5089728E+05  0.4881110E-02 -0.9192646E-02  0.4857810E+05  0.3304040E+05
  0.2900000E+01  0.1976328E+05  0.4207579E+05  0.2721836E-02  0.1178093E-01  0.5291958E+05  0.2424950E+05
  0.3000000E+01  0.2241276E+05  0.3452137E+05 -0.3038645E-02  0.1105715E-02  0.5685805E+05  0.1714865E+05
  0.3100000E+01  0.2486880E+05  0.2773512E+05  0.3055603E-03 -0.4825573E-02  0.6044757E+05  0.1099907E+05
  0.3200000E+01  0.2713843E+05  0.1978484E+05  0.3609508E-02  0.6249659E-02  0.6414501E+05  0.3793280E+04
Zone t="Motion of body    1 in DoF   2",I=    32,F=POINT
  0.1000000E+00 -0.1700521E-02 -0.4851725E-05  0.8680541E+05  0.6424495E+02  0.1217127E-02 -0.8782372E-05
  0.2000000E+00 -0.9119511E-04 -0.7282943E-05  0.8817916E+05  0.4911883E+03 -0.6768703E-02  0.4321337E-06
  0.3000000E+00  0.1749595E-02  0.2932549E-04  0.8848391E+05  0.1535348E+04 -0.2613068E-02  0.9751320E-04
  0.4000000E+00  0.9430647E-02 -0.2443790E-05  0.8784618E+05  0.3262379E+04  0.9931326E-02 -0.4184246E-04
  0.5000000E+00  0.3108978E-03 -0.6622076E-04  0.8610752E+05  0.5523119E+04 -0.3051758E-02 -0.3669262E-03
  0.6000001E+00 -0.7618267E-02 -0.2361536E-03  0.8340965E+05  0.7991537E+04 -0.1122474E-01 -0.7559061E-03
  0.7000000E+00  0.7370200E-02 -0.8463860E-04  0.8010631E+05  0.1024763E+05  0.9788786E-02 -0.1466513E-02
  0.8000001E+00 -0.6403327E-02  0.5844831E-03  0.7666651E+05  0.1188483E+05 -0.2015233E-01  0.5016327E-03
  0.9000000E+00 -0.2640724E-01 -0.4348755E-03  0.7337871E+05  0.1259431E+05 -0.3571510E-01 -0.1896620E-02
  0.1000000E+01  0.1007652E-01  0.8339882E-03  0.7073848E+05  0.1222593E+05  0.1066780E-01  0.2494097E-02
  0.1100000E+01 -0.2844724E-01 -0.6650090E-02  0.6885361E+05  0.1081847E+05 -0.3755829E-01 -0.8769274E-02
  0.1200000E+01 -0.2160112E-01 -0.7140815E-02  0.6802383E+05  0.8593691E+04 -0.3639539E-01 -0.1272416E-01
  0.1300000E+01 -0.1998608E-01 -0.1061851E-01  0.6816817E+05  0.5919970E+04 -0.3774570E-01 -0.1189268E-01
  0.1400000E+01  0.7505758E-02  0.5363524E-03  0.6917434E+05  0.3262569E+04  0.5046981E-02 -0.5300045E-03
  0.1500000E+01  0.4167557E-02 -0.3333390E-02  0.7082380E+05  0.1119491E+04  0.3828685E-02 -0.1549423E-02
  0.1600000E+01 -0.2425909E-02  0.1871988E-02  0.7284311E+05 -0.9092262E+02 -0.4942417E-02  0.1658484E-02
  0.1700000E+01  0.8616447E-02  0.9225808E-02  0.7489842E+05 -0.8026618E+02  0.1028397E-01  0.1317057E-01
  0.1800000E+01 -0.4337629E-02 -0.2838388E-02  0.7672060E+05  0.1242538E+04 -0.3239314E-02 -0.2990931E-02
  0.1900000E+01  0.4106823E-02 -0.7867292E-02  0.7809810E+05  0.3812957E+04  0.2654226E-02 -0.8319736E-02
  0.2000000E+01  0.1924992E-02  0.3736176E-01  0.7895537E+05  0.7360118E+04  0.3011703E-02  0.4949170E-01
  0.2100000E+01  0.1331511E-02 -0.7325724E-02  0.7918042E+05  0.1151944E+05  0.4359654E-04 -0.9840429E-02
  0.2200000E+01  0.1349016E-02  0.7735960E-02  0.7885225E+05  0.1594822E+05  0.2731843E-02  0.1155026E-01
  0.2300000E+01  0.1899056E-03  0.1400553E-01  0.7807484E+05  0.2031013E+05 -0.1799542E-03  0.2107515E-01
  0.2400000E+01 -0.7951259E-03 -0.4876018E-02  0.7690437E+05  0.2447977E+05  0.6198883E-04 -0.8697808E-02
  0.2500000E+01 -0.2390671E-02  0.1659545E-01  0.7537261E+05  0.2931511E+05 -0.5349732E-02  0.2144593E-01
  0.2600000E+01 -0.4434586E-03  0.4961785E-02  0.7553818E+05  0.2213545E+05 -0.7564839E-02  0.2080005E-01
  0.2700000E+01  0.3495040E-02 -0.1455203E-02  0.7339876E+05  0.2885291E+05  0.7442898E-02 -0.9252727E-03
  0.2800000E+01 -0.2104214E-02 -0.3025919E-02  0.7203648E+05  0.3049684E+05 -0.1103537E-03 -0.1812220E-02
  0.2900000E+01 -0.2702845E-02  0.1985593E-01  0.7085638E+05  0.3117762E+05 -0.4781526E-02  0.2526075E-01
  0.3000000E+01 -0.6135305E-03  0.8934647E-02  0.6981216E+05  0.3131108E+05 -0.1180013E-02  0.1451260E-01
  0.3100000E+01  0.3042836E-02  0.1129311E-01  0.6889547E+05  0.3098007E+05  0.6204421E-02  0.1903313E-01
  0.3200000E+01  0.6951094E-02  0.7208437E-02  0.6811135E+05  0.3028878E+05  0.9835958E-02  0.1224470E-01
Zone t="Motion of body    1 in DoF   3",I=    32,F=POINT
  0.1000000E+00  0.1530170E+06  0.3100531E-02  0.1766980E-01  0.2089936E-04  0.2546568E+06  0.4681509E-02
  0.2000000E+00  0.1550837E+06  0.3984883E+00  0.1041398E-01  0.1228443E-03  0.2577446E+06  0.6036165E+00
  0.3000000E+00  0.1564763E+06  0.6697742E+01 -0.1299237E-01 -0.3278782E-03  0.2595679E+06  0.1012113E+02
  0.4000000E+00  0.1590670E+06  0.4913810E+02  0.2126567E-01  0.9043455E-03  0.2629937E+06  0.7398742E+02
  0.5000000E+00  0.1624302E+06  0.2281226E+03 -0.4094660E-02 -0.4558176E-03  0.2674968E+06  0.3419448E+03
  0.6000001E+00  0.1668665E+06  0.7922419E+03 -0.6719628E-02  0.3367513E-03  0.2734728E+06  0.1181011E+04
  0.7000000E+00  0.1733180E+06  0.2256926E+04 -0.1235127E-01 -0.5614254E-02  0.2819561E+06  0.3340000E+04
  0.8000001E+00  0.1811296E+06  0.5539685E+04 -0.6766602E-01 -0.3032031E-01  0.2924177E+06  0.8133147E+04
  0.9000000E+00  0.1902836E+06  0.1214952E+05 -0.6543266E-03  0.6475396E-02  0.3042428E+06  0.1766219E+05
  0.1000000E+01  0.2004334E+06  0.2426097E+05 -0.1776129E-01 -0.2336584E-01  0.3171902E+06  0.3488417E+05
  0.1100000E+01  0.2098071E+06  0.4474877E+05 -0.1774598E-01 -0.1708846E-01  0.3281640E+06  0.6349316E+05
  0.1200000E+01  0.2147769E+06  0.7611706E+05 -0.3464098E-01 -0.2717230E-01  0.3327153E+06  0.1064683E+06
  0.1300000E+01  0.2125609E+06  0.1194148E+06 -0.3855036E-01 -0.4894090E-01  0.3266738E+06  0.1642598E+06
  0.1400000E+01  0.1984589E+06  0.1706937E+06 -0.1024808E-01 -0.1309478E-01  0.3043850E+06  0.2304080E+06
  0.1500000E+01  0.1716601E+06  0.2203358E+06  0.1524289E-03  0.2808571E-03  0.2657477E+06  0.2910738E+06
  0.1600000E+01  0.1362182E+06  0.2560328E+06 -0.1305938E-02 -0.7458866E-02  0.2173085E+06  0.3301152E+06
  0.1700000E+01  0.9969685E+05  0.2698435E+06  0.3189409E-02  0.7734954E-02  0.1697820E+06  0.3385459E+06
  0.1800000E+01  0.6890078E+05  0.2625487E+06  0.4296436E-02 -0.6030560E-02  0.1317801E+06  0.3194515E+06
  0.1900000E+01  0.4684955E+05  0.2403317E+06 -0.5695569E-02 -0.3504723E-02  0.1066079E+06  0.2824958E+06
  0.2000000E+01  0.3332413E+05  0.2106008E+06  0.2720356E-02 -0.2146706E-02  0.9315289E+05  0.2380401E+06
  0.2100000E+01  0.2668297E+05  0.1787562E+06 -0.1337415E-02 -0.1140535E-03  0.8855095E+05  0.1933267E+06
  0.2200000E+01  0.2485741E+05  0.1479772E+06 -0.4472516E-03  0.1905613E-02  0.8991350E+05  0.1522147E+06
  0.2300000E+01  0.2622182E+05  0.1201022E+06 -0.1263515E-02  0.6736339E-02  0.9488046E+05  0.1167197E+06
  0.2400000E+01  0.2953388E+05  0.9585888E+05 -0.8875330E-02  0.1956450E-02  0.1016993E+06  0.8724811E+05
  0.2500000E+01  0.3390712E+05  0.7524640E+05 -0.2891102E-01  0.3022357E-01  0.1093370E+06  0.6366960E+05
  0.2600000E+01  0.3873813E+05  0.5816772E+05 -0.1267378E-01  0.3137800E-01  0.1169752E+06  0.4546949E+05
  0.2700000E+01  0.4362106E+05  0.4438648E+05  0.4606777E-02 -0.2640061E-01  0.1241431E+06  0.3184495E+05
  0.2800000E+01  0.4829967E+05  0.3336783E+05  0.1013722E-01  0.4043497E-02  0.1306203E+06  0.2181350E+05
  0.2900000E+01  0.5263703E+05  0.2455402E+05 -0.5734378E-03  0.6269854E-02  0.1362873E+06  0.1463477E+05
  0.3000000E+01  0.5656688E+05  0.1750733E+05 -0.2120177E-02  0.2824375E-02  0.1411604E+06  0.9397172E+04
  0.3100000E+01  0.6010034E+05  0.1167886E+05 -0.3534748E-02  0.9687413E-03  0.1454026E+06  0.5303688E+04
  0.3200000E+01  0.6339246E+05  0.5995859E+04  0.1306310E-02 -0.1499971E-02  0.1494174E+06  0.1524100E+04
