VARIABLES="w (rad/s)"
"abs(F   1   1)" "angle(F   1   1)"
"abs(F   1   2)" "angle(F   1   2)"
"abs(F   1   3)" "angle(F   1   3)"
Zone t="Diffraction force - beta =   0.000 deg",I=    32,F=POINT
  0.1000000E+00  0.8715646E+03 -0.1570796E+01  0.9494177E+03 -0.3131448E+01  0.1879414E+04 -0.1570796E+01
  0.2000000E+00  0.3494893E+04 -0.1570785E+01  0.3873405E+04 -0.3103181E+01  0.7534600E+04 -0.1570785E+01
  0.3000000E+00  0.7823086E+04 -0.1570673E+01  0.8778711E+04 -0.3060698E+01  0.1685023E+05 -0.1570670E+01
  0.4000000E+00  0.1387080E+05 -0.1570125E+01  0.1553260E+05 -0.3008543E+01  0.2983140E+05 -0.1570112E+01
  0.5000000E+00  0.2156262E+05 -0.1568345E+01  0.2380598E+05 -0.2950865E+01  0.4628919E+05 -0.1568298E+01
  0.6000001E+00  0.3085536E+05 -0.1563858E+01  0.3311615E+05 -0.2891209E+01  0.6609818E+05 -0.1563722E+01
  0.7000000E+00  0.4197902E+05 -0.1554434E+01  0.4289979E+05 -0.2832490E+01  0.8967720E+05 -0.1554102E+01
  0.8000001E+00  0.5473100E+05 -0.1537036E+01  0.5256409E+05 -0.2776648E+01  0.1165603E+06 -0.1536326E+01
  0.9000000E+00  0.6901899E+05 -0.1507998E+01  0.6158944E+05 -0.2725445E+01  0.1464591E+06 -0.1506629E+01
  0.1000000E+01  0.8485783E+05 -0.1463929E+01  0.6950706E+05 -0.2679500E+01  0.1792995E+06 -0.1461488E+01
  0.1100000E+01  0.1013738E+06 -0.1401223E+01  0.7597418E+05 -0.2639776E+01  0.2131344E+06 -0.1397155E+01
  0.1200000E+01  0.1168951E+06 -0.1317143E+01  0.8075395E+05 -0.2606081E+01  0.2444290E+06 -0.1310659E+01
  0.1300000E+01  0.1303076E+06 -0.1212569E+01  0.8368277E+05 -0.2578848E+01  0.2707578E+06 -0.1202684E+01
  0.1400000E+01  0.1391105E+06 -0.1089825E+01  0.8469953E+05 -0.2558141E+01  0.2869191E+06 -0.1075076E+01
  0.1500000E+01  0.1413977E+06 -0.9539775E+00  0.8383490E+05 -0.2544381E+01  0.2892070E+06 -0.9323917E+00
  0.1600000E+01  0.1362431E+06 -0.8119125E+00  0.8116932E+05 -0.2537863E+01  0.2760940E+06 -0.7806139E+00
  0.1700000E+01  0.1240422E+06 -0.6686150E+00  0.7688370E+05 -0.2539449E+01  0.2488646E+06 -0.6231714E+00
  0.1800000E+01  0.1062713E+06 -0.5257787E+00  0.7117721E+05 -0.2549946E+01  0.2110961E+06 -0.4590633E+00
  0.1900000E+01  0.8485760E+05 -0.3784794E+00  0.6434655E+05 -0.2571115E+01  0.1672726E+06 -0.2778532E+00
  0.2000000E+01  0.6175398E+05 -0.2100788E+00  0.5669773E+05 -0.2605507E+01  0.1221550E+06 -0.5112686E-01
  0.2100000E+01  0.3884142E+05  0.3651722E-01  0.4857951E+05 -0.2657108E+01  0.8123726E+05  0.3003295E+00
  0.2200000E+01  0.1980321E+05  0.6220726E+00  0.4037810E+05 -0.2732800E+01  0.5521630E+05  0.9561337E+00
  0.2300000E+01  0.1894382E+05  0.1908053E+01  0.3246543E+05 -0.2846601E+01  0.5914783E+05  0.1778031E+01
  0.2400000E+01  0.3427303E+05  0.2484390E+01  0.2529711E+05 -0.3035057E+01  0.8216742E+05  0.2258894E+01
  0.2500000E+01  0.5036041E+05  0.2704946E+01  0.2374170E+05  0.2425380E+01  0.1072149E+06  0.2511810E+01
  0.2600000E+01  0.6415597E+05  0.2832793E+01  0.1388855E+05  0.3091809E+01  0.1283329E+06  0.2672026E+01
  0.2700000E+01  0.7489077E+05  0.2925436E+01  0.1041153E+05  0.2623085E+01  0.1437026E+06  0.2790902E+01
  0.2800000E+01  0.8220744E+05  0.3001223E+01  0.8462724E+04  0.2151229E+01  0.1527027E+06  0.2889148E+01
  0.2900000E+01  0.8594168E+05  0.3069617E+01  0.7488869E+04  0.1679632E+01  0.1552505E+06  0.2978344E+01
  0.3000000E+01  0.8609880E+05  0.3136246E+01  0.6921585E+04  0.1220930E+01  0.1515267E+06  0.3065729E+01
  0.3100000E+01  0.8218518E+05 -0.3061100E+01  0.6619493E+04  0.7410597E+00  0.1398279E+06 -0.3110957E+01
  0.3200000E+01  0.7842402E+05 -0.3083688E+01  0.6878232E+04  0.2343403E+00  0.1369193E+06 -0.3102305E+01
