VARIABLES="w (rad/s)"
"abs(F   1   1)" "angle(F   1   1)"
"abs(F   1   2)" "angle(F   1   2)"
"abs(F   1   3)" "angle(F   1   3)"
Zone t="Diffraction force - beta =   0.000 deg",I=    32,F=POINT
  0.1000000E+00  0.5960749E+01 -0.1570796E+01  0.3581261E+02 -0.3138646E+01  0.2194274E+02 -0.1570796E+01
  0.2000000E+00  0.2376871E+02 -0.1570796E+01  0.1447185E+03 -0.3130008E+01  0.8749989E+02 -0.1570796E+01
  0.3000000E+00  0.5309159E+02 -0.1570795E+01  0.3296520E+03 -0.3116142E+01  0.1953443E+03 -0.1570795E+01
  0.4000000E+00  0.9402924E+02 -0.1570789E+01  0.5933604E+03 -0.3097634E+01  0.3460602E+03 -0.1570789E+01
  0.5000000E+00  0.1454594E+03 -0.1570767E+01  0.9373280E+03 -0.3075097E+01  0.5352808E+03 -0.1570766E+01
  0.6000001E+00  0.2063816E+03 -0.1570709E+01  0.1362097E+04 -0.3049194E+01  0.7593024E+03 -0.1570706E+01
  0.7000000E+00  0.2774283E+03 -0.1570580E+01  0.1866949E+04 -0.3020602E+01  0.1020931E+04 -0.1570574E+01
  0.8000001E+00  0.3562762E+03 -0.1570322E+01  0.2448775E+04 -0.2989922E+01  0.1311350E+04 -0.1570310E+01
  0.9000000E+00  0.4423678E+03 -0.1569857E+01  0.3103550E+04 -0.2957782E+01  0.1627941E+04 -0.1569831E+01
  0.1000000E+01  0.5342762E+03 -0.1569075E+01  0.3824510E+04 -0.2924659E+01  0.1966592E+04 -0.1569028E+01
  0.1100000E+01  0.6297368E+03 -0.1567834E+01  0.4603582E+04 -0.2891007E+01  0.2317751E+04 -0.1567751E+01
  0.1200000E+01  0.7280287E+03 -0.1565966E+01  0.5436112E+04 -0.2857498E+01  0.2679193E+04 -0.1565828E+01
  0.1300000E+01  0.8281357E+03 -0.1563279E+01  0.6306581E+04 -0.2824030E+01  0.3048219E+04 -0.1563062E+01
  0.1400000E+01  0.9258484E+03 -0.1559543E+01  0.7212488E+04 -0.2791458E+01  0.3406655E+04 -0.1559207E+01
  0.1500000E+01  0.1018748E+04 -0.1554521E+01  0.8143658E+04 -0.2759921E+01  0.3747723E+04 -0.1554023E+01
  0.1600000E+01  0.1106977E+04 -0.1548039E+01  0.9085128E+04 -0.2729199E+01  0.4071304E+04 -0.1547322E+01
  0.1700000E+01  0.1183807E+04 -0.1539827E+01  0.1003278E+05 -0.2699869E+01  0.4351863E+04 -0.1538814E+01
  0.1800000E+01  0.1247480E+04 -0.1529776E+01  0.1098088E+05 -0.2672288E+01  0.4581924E+04 -0.1528369E+01
  0.1900000E+01  0.1290449E+04 -0.1517695E+01  0.1191672E+05 -0.2646042E+01  0.4734688E+04 -0.1515775E+01
  0.2000000E+01  0.1313263E+04 -0.1503794E+01  0.1283285E+05 -0.2621185E+01  0.4811724E+04 -0.1501222E+01
  0.2100000E+01  0.1308898E+04 -0.1488162E+01  0.1372395E+05 -0.2598014E+01  0.4785108E+04 -0.1484731E+01
  0.2200000E+01  0.1269823E+04 -0.1470961E+01  0.1458319E+05 -0.2576645E+01  0.4627309E+04 -0.1466390E+01
  0.2300000E+01  0.1193942E+04 -0.1453089E+01  0.1540619E+05 -0.2557146E+01  0.4329720E+04 -0.1446989E+01
  0.2400000E+01  0.1076440E+04 -0.1435899E+01  0.1618494E+05 -0.2539379E+01  0.3873537E+04 -0.1427669E+01
  0.2500000E+01  0.9129770E+03 -0.1421974E+01  0.1691173E+05 -0.2522957E+01  0.3242977E+04 -0.1410666E+01
  0.2600000E+01  0.7021573E+03 -0.1418314E+01  0.1758353E+05 -0.2508108E+01  0.2431597E+04 -0.1402316E+01
  0.2700000E+01  0.4436322E+03 -0.1450601E+01  0.1819327E+05 -0.2494941E+01  0.1436371E+04 -0.1428588E+01
  0.2800000E+01  0.1469027E+03 -0.1776823E+01  0.1873644E+05 -0.2483007E+01  0.3046197E+03 -0.1958246E+01
  0.2900000E+01  0.2430826E+03  0.2218994E+01  0.1920981E+05 -0.2472329E+01  0.1159788E+04  0.2077225E+01
  0.3000000E+01  0.6411262E+03  0.2057509E+01  0.1960716E+05 -0.2463143E+01  0.2703081E+04  0.2010429E+01
  0.3100000E+01  0.1086915E+04  0.2039090E+01  0.1992310E+05 -0.2455481E+01  0.4416476E+04  0.2011513E+01
  0.3200000E+01  0.1570736E+04  0.2045984E+01  0.2015796E+05 -0.2449006E+01  0.6274116E+04  0.2026668E+01
