VARIABLES="w (rad/s)"
"abs(F   1   1)" "angle(F   1   1)"
"abs(F   1   2)" "angle(F   1   2)"
"abs(F   1   3)" "angle(F   1   3)"
Zone t="FKforce - beta =   0.000",I=    32,F=POINT
  0.1000000E+00  0.1543183E+02 -0.1570735E+01  0.4541234E+05  0.1203828E-10  0.5878810E+02 -0.1570799E+01
  0.2000000E+00  0.6167868E+02 -0.1570794E+01  0.4536603E+05  0.2906917E-10  0.2349824E+03 -0.1570788E+01
  0.3000000E+00  0.1385941E+03 -0.1570793E+01  0.4528846E+05 -0.1102243E-10  0.5280712E+03 -0.1570793E+01
  0.4000000E+00  0.2459332E+03 -0.1570795E+01  0.4517967E+05  0.1121388E-10  0.9371957E+03 -0.1570796E+01
  0.5000000E+00  0.3833507E+03 -0.1570795E+01  0.4503905E+05 -0.2352342E-09  0.1461146E+04 -0.1570795E+01
  0.6000001E+00  0.5503998E+03 -0.1570796E+01  0.4486629E+05  0.2889476E-09  0.2098349E+04 -0.1570795E+01
  0.7000000E+00  0.7465256E+03 -0.1570795E+01  0.4466060E+05 -0.5338454E-11  0.2846848E+04 -0.1570796E+01
  0.8000001E+00  0.9710693E+03 -0.1570797E+01  0.4442144E+05 -0.1151264E-08  0.3704301E+04 -0.1570796E+01
  0.9000000E+00  0.1223258E+04 -0.1570796E+01  0.4414805E+05 -0.9558766E-09  0.4667955E+04 -0.1570796E+01
  0.1000000E+01  0.1502199E+04 -0.1570796E+01  0.4383954E+05 -0.1199175E-08  0.5734635E+04 -0.1570796E+01
  0.1100000E+01  0.1806886E+04 -0.1570796E+01  0.4349498E+05 -0.3124466E-09  0.6900694E+04 -0.1570796E+01
  0.1200000E+01  0.2136180E+04 -0.1570796E+01  0.4311338E+05 -0.3207422E-09  0.8162032E+04 -0.1570796E+01
  0.1300000E+01  0.2488812E+04 -0.1570796E+01  0.4269376E+05  0.2515768E-08  0.9514034E+04 -0.1570796E+01
  0.1400000E+01  0.2863381E+04 -0.1570796E+01  0.4223491E+05 -0.2427376E-09  0.1095158E+05 -0.1570797E+01
  0.1500000E+01  0.3258339E+04 -0.1570796E+01  0.4173578E+05 -0.9996999E-10  0.1246897E+05 -0.1570797E+01
  0.1600000E+01  0.3672001E+04 -0.1570796E+01  0.4119521E+05 -0.1649446E-08  0.1405996E+05 -0.1570796E+01
  0.1700000E+01  0.4102521E+04 -0.1570796E+01  0.4061205E+05  0.4256212E-09  0.1571769E+05 -0.1570796E+01
  0.1800000E+01  0.4547902E+04 -0.1570796E+01  0.3998525E+05 -0.5426024E-09  0.1743470E+05 -0.1570796E+01
  0.1900000E+01  0.5005988E+04 -0.1570796E+01  0.3931366E+05 -0.7562460E-08  0.1920286E+05 -0.1570796E+01
  0.2000000E+01  0.5474463E+04 -0.1570796E+01  0.3859622E+05  0.1544313E-08  0.2101338E+05 -0.1570796E+01
  0.2100000E+01  0.5950846E+04 -0.1570796E+01  0.3783213E+05  0.2936738E-08  0.2285690E+05 -0.1570796E+01
  0.2200000E+01  0.6432491E+04 -0.1570796E+01  0.3702048E+05 -0.2595393E-08  0.2472327E+05 -0.1570796E+01
  0.2300000E+01  0.6916599E+04 -0.1570796E+01  0.3616056E+05  0.1180206E-08  0.2660167E+05 -0.1570796E+01
  0.2400000E+01  0.7400208E+04 -0.1570796E+01  0.3525193E+05 -0.8629941E-08  0.2848074E+05 -0.1570796E+01
  0.2500000E+01  0.7880198E+04 -0.1570796E+01  0.3429423E+05  0.3907107E-08  0.3034837E+05 -0.1570796E+01
  0.2600000E+01  0.8353307E+04 -0.1570796E+01  0.3328736E+05 -0.1273481E-07  0.3219182E+05 -0.1570796E+01
  0.2700000E+01  0.8816156E+04 -0.1570796E+01  0.3223154E+05  0.1303362E-07  0.3399786E+05 -0.1570796E+01
  0.2800000E+01  0.9265206E+04 -0.1570796E+01  0.3112722E+05  0.1669002E-07  0.3575267E+05 -0.1570796E+01
  0.2900000E+01  0.9696844E+04 -0.1570796E+01  0.2997518E+05  0.1049910E-08  0.3744194E+05 -0.1570796E+01
  0.3000000E+01  0.1010737E+05 -0.1570796E+01  0.2877659E+05  0.5352211E-08  0.3905097E+05 -0.1570796E+01
  0.3100000E+01  0.1049303E+05 -0.1570796E+01  0.2753303E+05  0.1039990E-07  0.4056490E+05 -0.1570796E+01
  0.3200000E+01  0.1085001E+05 -0.1570796E+01  0.2624648E+05 -0.1588762E-07  0.4196855E+05 -0.1570796E+01
