 VARIABLES="Time (s)"
"AddedMass    1" "IRF    1"
"AddedMass    2" "IRF    2"
"AddedMass    3" "IRF    3"
Zone t="DoF    1",I=   160,F=POINT
  0.0000000E+00  0.7802273E+02  0.9968460E+01 -0.1419583E-04 -0.1725120E-04  0.2606661E+03  0.3367332E+02
  0.1000000E+00  0.7802273E+02  0.9572162E+01 -0.1419583E-04 -0.1679134E-04  0.2606661E+03  0.3233446E+02
  0.2000000E+00  0.7802273E+02  0.8416320E+01 -0.1419583E-04 -0.1544010E-04  0.2606661E+03  0.2842956E+02
  0.3000000E+00  0.7802273E+02  0.6597244E+01 -0.1419583E-04 -0.1328076E-04  0.2606661E+03  0.2228402E+02
  0.4000000E+00  0.7802273E+02  0.4266205E+01 -0.1419583E-04 -0.1044608E-04  0.2606661E+03  0.1440893E+02
  0.5000000E+00  0.7802273E+02  0.1616424E+01 -0.1419583E-04 -0.7109787E-05  0.2606661E+03  0.5457137E+01
  0.6000000E+00  0.7802273E+02 -0.1133502E+01 -0.1419583E-04 -0.3475320E-05  0.2606661E+03 -0.3832807E+01
  0.7000000E+00  0.7802273E+02 -0.3758283E+01 -0.1419583E-04  0.2372430E-06  0.2606661E+03 -0.1269974E+02
  0.8000000E+00  0.7802273E+02 -0.6045106E+01 -0.1419583E-04  0.3805334E-05  0.2606661E+03 -0.2042467E+02
  0.9000000E+00  0.7802273E+02 -0.7811571E+01 -0.1419583E-04  0.7018105E-05  0.2606661E+03 -0.2639137E+02
  0.1000000E+01  0.7802273E+02 -0.8920897E+01 -0.1419583E-04  0.9689848E-05  0.2606661E+03 -0.3013776E+02
  0.1100000E+01  0.7802273E+02 -0.9293036E+01 -0.1419583E-04  0.1167166E-04  0.2606661E+03 -0.3139350E+02
  0.1200000E+01  0.7802273E+02 -0.8910809E+01 -0.1419583E-04  0.1286066E-04  0.2606661E+03 -0.3010060E+02
  0.1300000E+01  0.7802273E+02 -0.7820510E+01 -0.1419583E-04  0.1320608E-04  0.2606661E+03 -0.2641559E+02
  0.1400000E+01  0.7802273E+02 -0.6127068E+01 -0.1419583E-04  0.1271192E-04  0.2606661E+03 -0.2069307E+02
  0.1500000E+01  0.7802273E+02 -0.3984150E+01 -0.1419583E-04  0.1143594E-04  0.2606661E+03 -0.1345234E+02
  0.1600000E+01  0.7802273E+02 -0.1580235E+01 -0.1419583E-04  0.9485167E-05  0.2606661E+03 -0.5330245E+01
  0.1700000E+01  0.7802273E+02  0.8781597E+00 -0.1419583E-04  0.7008017E-05  0.2606661E+03  0.2975405E+01
  0.1800000E+01  0.7802273E+02  0.3184526E+01 -0.1419583E-04  0.4183945E-05  0.2606661E+03  0.1076689E+02
  0.1900000E+01  0.7802273E+02  0.5150123E+01 -0.1419583E-04  0.1210978E-05  0.2606661E+03  0.1740655E+02
  0.2000000E+01  0.7802273E+02  0.6619854E+01 -0.1419583E-04 -0.1707760E-05  0.2606661E+03  0.2237043E+02
  0.2100000E+01  0.7802273E+02  0.7484918E+01 -0.1419583E-04 -0.4377715E-05  0.2606661E+03  0.2529103E+02
  0.2200000E+01  0.7802273E+02  0.7691176E+01 -0.1419583E-04 -0.6625776E-05  0.2606661E+03  0.2598557E+02
  0.2300000E+01  0.7802273E+02  0.7242558E+01 -0.1419583E-04 -0.8311524E-05  0.2606661E+03  0.2446747E+02
  0.2400000E+01  0.7802273E+02  0.6199284E+01 -0.1419583E-04 -0.9336004E-05  0.2606661E+03  0.2094038E+02
  0.2500000E+01  0.7802273E+02  0.4671217E+01 -0.1419583E-04 -0.9647518E-05  0.2606661E+03  0.1577563E+02
  0.2600000E+01  0.7802273E+02  0.2806940E+01 -0.1419583E-04 -0.9244028E-05  0.2606661E+03  0.9475376E+01
  0.2700000E+01  0.7802273E+02  0.7797203E+00 -0.1419583E-04 -0.8172047E-05  0.2606661E+03  0.2625158E+01
  0.2800000E+01  0.7802273E+02 -0.1228420E+01 -0.1419583E-04 -0.6522175E-05  0.2606661E+03 -0.4159966E+01
  0.2900000E+01  0.7802273E+02 -0.3043000E+01 -0.1419583E-04 -0.4421525E-05  0.2606661E+03 -0.1029045E+02
  0.3000000E+01  0.7802273E+02 -0.4512268E+01 -0.1419583E-04 -0.2023902E-05  0.2606661E+03 -0.1525360E+02
  0.3100000E+01  0.7802273E+02 -0.5520041E+01 -0.1419583E-04  0.5019076E-06  0.2606661E+03 -0.1865694E+02
  0.3200000E+01  0.7802273E+02 -0.5994955E+01 -0.1419583E-04  0.2984422E-05  0.2606661E+03 -0.2025946E+02
  0.3300000E+01  0.7802273E+02 -0.5915503E+01 -0.1419583E-04  0.5261746E-05  0.2606661E+03 -0.1998867E+02
  0.3400000E+01  0.7802273E+02 -0.5310430E+01 -0.1419583E-04  0.7192784E-05  0.2606661E+03 -0.1794186E+02
  0.3500000E+01  0.7802273E+02 -0.4254608E+01 -0.1419583E-04  0.8666502E-05  0.2606661E+03 -0.1437219E+02
  0.3600000E+01  0.7802273E+02 -0.2860834E+01 -0.1419583E-04  0.9608812E-05  0.2606661E+03 -0.9660942E+01
  0.3700000E+01  0.7802273E+02 -0.1268463E+01 -0.1419583E-04  0.9986316E-05  0.2606661E+03 -0.4279118E+01
  0.3800000E+01  0.7802273E+02  0.3700835E+00 -0.1419583E-04  0.9806911E-05  0.2606661E+03  0.1258171E+01
  0.3900000E+01  0.7802273E+02  0.1903602E+01 -0.1419583E-04  0.9117223E-05  0.2606661E+03  0.6439970E+01
  0.4000000E+01  0.7802273E+02  0.3195831E+01 -0.1419583E-04  0.7997069E-05  0.2606661E+03  0.1080586E+02
  0.4100000E+01  0.7802273E+02  0.4137469E+01 -0.1419583E-04  0.6551594E-05  0.2606661E+03  0.1398657E+02
  0.4200000E+01  0.7802273E+02  0.4655311E+01 -0.1419583E-04  0.4901664E-05  0.2606661E+03  0.1573485E+02
  0.4300000E+01  0.7802273E+02  0.4717815E+01 -0.1419583E-04  0.3173458E-05  0.2606661E+03  0.1594423E+02
  0.4400000E+01  0.7802273E+02  0.4336674E+01 -0.1419583E-04  0.1487966E-05  0.2606661E+03  0.1465439E+02
  0.4500000E+01  0.7802273E+02  0.3564327E+01 -0.1419583E-04 -0.4852343E-07  0.2606661E+03  0.1204268E+02
  0.4600000E+01  0.7802273E+02  0.2487762E+01 -0.1419583E-04 -0.1352343E-05  0.2606661E+03  0.8403181E+01
  0.4700000E+01  0.7802273E+02  0.1219312E+01 -0.1419583E-04 -0.2368025E-05  0.2606661E+03  0.4115620E+01
  0.4800000E+01  0.7802273E+02 -0.1146224E+00 -0.1419583E-04 -0.3071159E-05  0.2606661E+03 -0.3927917E+00
  0.4900000E+01  0.7802273E+02 -0.1385878E+01 -0.1419583E-04 -0.3468410E-05  0.2606661E+03 -0.4688914E+01
  0.5000000E+01  0.7802273E+02 -0.2476583E+01 -0.1419583E-04 -0.3594607E-05  0.2606661E+03 -0.8374422E+01
  0.5100000E+01  0.7802273E+02 -0.3289904E+01 -0.1419583E-04 -0.3507395E-05  0.2606661E+03 -0.1112214E+02
  0.5200000E+01  0.7802273E+02 -0.3758499E+01 -0.1419583E-04 -0.3279926E-05  0.2606661E+03 -0.1270457E+02
  0.5300000E+01  0.7802273E+02 -0.3849936E+01 -0.1419583E-04 -0.2992284E-05  0.2606661E+03 -0.1301222E+02
  0.5400000E+01  0.7802273E+02 -0.3568674E+01 -0.1419583E-04 -0.2722481E-05  0.2606661E+03 -0.1206029E+02
  0.5500000E+01  0.7802273E+02 -0.2954478E+01 -0.1419583E-04 -0.2537966E-05  0.2606661E+03 -0.9983280E+01
  0.5600000E+01  0.7802273E+02 -0.2077547E+01 -0.1419583E-04 -0.2488362E-05  0.2606661E+03 -0.7018541E+01
  0.5700000E+01  0.7802273E+02 -0.1030892E+01 -0.1419583E-04 -0.2600182E-05  0.2606661E+03 -0.3480489E+01
  0.5800000E+01  0.7802273E+02  0.7921319E-01 -0.1419583E-04 -0.2874033E-05  0.2606661E+03  0.2716521E+00
  0.5900000E+01  0.7802273E+02  0.1143799E+01 -0.1419583E-04 -0.3284526E-05  0.2606661E+03  0.3869587E+01
  0.6000000E+01  0.7802273E+02  0.2061712E+01 -0.1419583E-04 -0.3783160E-05  0.2606661E+03  0.6971474E+01
  0.6100000E+01  0.7802273E+02  0.2749057E+01 -0.1419583E-04 -0.4303467E-05  0.2606661E+03  0.9293814E+01
  0.6200000E+01  0.7802273E+02  0.3146744E+01 -0.1419583E-04 -0.4768490E-05  0.2606661E+03  0.1063698E+02
  0.6300000E+01  0.7802273E+02  0.3225428E+01 -0.1419583E-04 -0.5099269E-05  0.2606661E+03  0.1090188E+02
  0.6400000E+01  0.7802273E+02  0.2987479E+01 -0.1419583E-04 -0.5224100E-05  0.2606661E+03  0.1009662E+02
  0.6500000E+01  0.7802273E+02  0.2465808E+01 -0.1419583E-04 -0.5087187E-05  0.2606661E+03  0.8332531E+01
  0.6600000E+01  0.7802273E+02  0.1719828E+01 -0.1419583E-04 -0.4655985E-05  0.2606661E+03  0.5810491E+01
  0.6700000E+01  0.7802273E+02  0.8289377E+00 -0.1419583E-04 -0.3926410E-05  0.2606661E+03  0.2798918E+01
  0.6800000E+01  0.7802273E+02 -0.1157040E+00 -0.1419583E-04 -0.2925387E-05  0.2606661E+03 -0.3940503E+00
  0.6900000E+01  0.7802273E+02 -0.1020370E+01 -0.1419583E-04 -0.1710181E-05  0.2606661E+03 -0.3451620E+01
  0.7000000E+01  0.7802273E+02 -0.1797920E+01 -0.1419583E-04 -0.3645918E-06  0.2606661E+03 -0.6079296E+01
  0.7100000E+01  0.7802273E+02 -0.2376068E+01 -0.1419583E-04  0.1007691E-05  0.2606661E+03 -0.8032793E+01
  0.7200000E+01  0.7802273E+02 -0.2704021E+01 -0.1419583E-04  0.2292340E-05  0.2606661E+03 -0.9140506E+01
  0.7300000E+01  0.7802273E+02 -0.2756820E+01 -0.1419583E-04  0.3375011E-05  0.2606661E+03 -0.9318148E+01
  0.7400000E+01  0.7802273E+02 -0.2537074E+01 -0.1419583E-04  0.4152880E-05  0.2606661E+03 -0.8574615E+01
  0.7500000E+01  0.7802273E+02 -0.2073987E+01 -0.1419583E-04  0.4545557E-05  0.2606661E+03 -0.7008687E+01
  0.7600000E+01  0.7802273E+02 -0.1419768E+01 -0.1419583E-04  0.4504605E-05  0.2606661E+03 -0.4796893E+01
  0.7700000E+01  0.7802273E+02 -0.6439364E+00 -0.1419583E-04  0.4020450E-05  0.2606661E+03 -0.2174253E+01
  0.7800000E+01  0.7802273E+02  0.1739180E+00 -0.1419583E-04  0.3126095E-05  0.2606661E+03  0.5902006E+00
  0.7900000E+01  0.7802273E+02  0.9522103E+00 -0.1419583E-04  0.1896834E-05  0.2606661E+03  0.3220706E+01
  0.8000000E+01  0.7802273E+02  0.1615379E+01 -0.1419583E-04  0.4461601E-06  0.2606661E+03  0.5461890E+01
  0.8100000E+01  0.7802273E+02  0.2101167E+01 -0.1419583E-04 -0.1082496E-05  0.2606661E+03  0.7103356E+01
  0.8200000E+01  0.7802273E+02  0.2366354E+01 -0.1419583E-04 -0.2527046E-05  0.2606661E+03  0.7999078E+01
  0.8300000E+01  0.7802273E+02  0.2390550E+01 -0.1419583E-04 -0.3720708E-05  0.2606661E+03  0.8080198E+01
  0.8400001E+01  0.7802273E+02  0.2177606E+01 -0.1419583E-04 -0.4507172E-05  0.2606661E+03  0.7359796E+01
  0.8500000E+01  0.7802273E+02  0.1754652E+01 -0.1419583E-04 -0.4755796E-05  0.2606661E+03  0.5929633E+01
  0.8600000E+01  0.7802273E+02  0.1168817E+01 -0.1419583E-04 -0.4375469E-05  0.2606661E+03  0.3949054E+01
  0.8700000E+01  0.7802273E+02  0.4821455E+00 -0.1419583E-04 -0.3325715E-05  0.2606661E+03  0.1627814E+01
  0.8800000E+01  0.7802273E+02 -0.2349284E+00 -0.1419583E-04 -0.1623940E-05  0.2606661E+03 -0.7960011E+00
  0.8900001E+01  0.7802273E+02 -0.9106699E+00 -0.1419583E-04  0.6518642E-06  0.2606661E+03 -0.3079923E+01
  0.9000000E+01  0.7802273E+02 -0.1479206E+01 -0.1419583E-04  0.3365657E-05  0.2606661E+03 -0.5001318E+01
  0.9100000E+01  0.7802273E+02 -0.1886855E+01 -0.1419583E-04  0.6331305E-05  0.2606661E+03 -0.6378767E+01
  0.9200000E+01  0.7802273E+02 -0.2097126E+01 -0.1419583E-04  0.9324815E-05  0.2606661E+03 -0.7088977E+01
  0.9300000E+01  0.7802273E+02 -0.2093956E+01 -0.1419583E-04  0.1210103E-04  0.2606661E+03 -0.7077709E+01
  0.9400001E+01  0.7802273E+02 -0.1882774E+01 -0.1419583E-04  0.1441265E-04  0.2606661E+03 -0.6363363E+01
  0.9500000E+01  0.7802273E+02 -0.1489509E+01 -0.1419583E-04  0.1603058E-04  0.2606661E+03 -0.5033632E+01
  0.9600000E+01  0.7802273E+02 -0.9575014E+00 -0.1419583E-04  0.1676381E-04  0.2606661E+03 -0.3235055E+01
  0.9700000E+01  0.7802273E+02 -0.3428621E+00 -0.1419583E-04  0.1647700E-04  0.2606661E+03 -0.1157322E+01
  0.9800000E+01  0.7802273E+02  0.2914310E+00 -0.1419583E-04  0.1510429E-04  0.2606661E+03  0.9866863E+00
  0.9900001E+01  0.7802273E+02  0.8818689E+00 -0.1419583E-04  0.1265811E-04  0.2606661E+03  0.2982300E+01
  0.1000000E+02  0.7802273E+02  0.1370763E+01 -0.1419583E-04  0.9231909E-05  0.2606661E+03  0.4634544E+01
  0.1010000E+02  0.7802273E+02  0.1711826E+01 -0.1419583E-04  0.4996264E-05  0.2606661E+03  0.5786997E+01
  0.1020000E+02  0.7802273E+02  0.1874497E+01 -0.1419583E-04  0.1892224E-06  0.2606661E+03  0.6336392E+01
  0.1030000E+02  0.7802273E+02  0.1846633E+01 -0.1419583E-04 -0.4900077E-05  0.2606661E+03  0.6241734E+01
  0.1040000E+02  0.7802273E+02  0.1635301E+01 -0.1419583E-04 -0.9951302E-05  0.2606661E+03  0.5526956E+01
  0.1050000E+02  0.7802273E+02  0.1265669E+01 -0.1419583E-04 -0.1463662E-04  0.2606661E+03  0.4277174E+01
  0.1060000E+02  0.7802273E+02  0.7780796E+00 -0.1419583E-04 -0.1864544E-04  0.2606661E+03  0.2628780E+01
  0.1070000E+02  0.7802273E+02  0.2237436E+00 -0.1419583E-04 -0.2170798E-04  0.2606661E+03  0.7549047E+00
  0.1080000E+02  0.7802273E+02 -0.3406271E+00 -0.1419583E-04 -0.2361661E-04  0.2606661E+03 -0.1152752E+01
  0.1090000E+02  0.7802273E+02 -0.8585323E+00 -0.1419583E-04 -0.2424226E-04  0.2606661E+03 -0.2903213E+01
  0.1100000E+02  0.7802273E+02 -0.1279337E+01 -0.1419583E-04 -0.2354497E-04  0.2606661E+03 -0.4325341E+01
  0.1110000E+02  0.7802273E+02 -0.1563185E+01 -0.1419583E-04 -0.2157757E-04  0.2606661E+03 -0.5284444E+01
  0.1120000E+02  0.7802273E+02 -0.1684699E+01 -0.1419583E-04 -0.1848198E-04  0.2606661E+03 -0.5694781E+01
  0.1130000E+02  0.7802273E+02 -0.1635268E+01 -0.1419583E-04 -0.1447813E-04  0.2606661E+03 -0.5527284E+01
  0.1140000E+02  0.7802273E+02 -0.1423474E+01 -0.1419583E-04 -0.9847246E-05  0.2606661E+03 -0.4811002E+01
  0.1150000E+02  0.7802273E+02 -0.1073955E+01 -0.1419583E-04 -0.4909492E-05  0.2606661E+03 -0.3629251E+01
  0.1160000E+02  0.7802273E+02 -0.6245214E+00 -0.1419583E-04  0.1167992E-08  0.2606661E+03 -0.2109869E+01
  0.1170000E+02  0.7802273E+02 -0.1222122E+00 -0.1419583E-04  0.4563029E-05  0.2606661E+03 -0.4118731E+00
  0.1180000E+02  0.7802273E+02  0.3816829E+00 -0.1419583E-04  0.8492130E-05  0.2606661E+03  0.1291360E+01
  0.1190000E+02  0.7802273E+02  0.8367574E+00 -0.1419583E-04  0.1156367E-04  0.2606661E+03  0.2829453E+01
  0.1200000E+02  0.7802273E+02  0.1198534E+01 -0.1419583E-04  0.1362910E-04  0.2606661E+03  0.4052082E+01
  0.1210000E+02  0.7802273E+02  0.1432798E+01 -0.1419583E-04  0.1462631E-04  0.2606661E+03  0.4843617E+01
  0.1220000E+02  0.7802273E+02  0.1518750E+01 -0.1419583E-04  0.1458251E-04  0.2606661E+03  0.5133789E+01
  0.1230000E+02  0.7802273E+02  0.1450876E+01 -0.1419583E-04  0.1360942E-04  0.2606661E+03  0.4903998E+01
  0.1240000E+02  0.7802273E+02  0.1239131E+01 -0.1419583E-04  0.1189141E-04  0.2606661E+03  0.4187923E+01
  0.1250000E+02  0.7802273E+02  0.9076814E+00 -0.1419583E-04  0.9667328E-05  0.2606661E+03  0.3067287E+01
  0.1260000E+02  0.7802273E+02  0.4921360E+00 -0.1419583E-04  0.7207781E-05  0.2606661E+03  0.1662480E+01
  0.1270000E+02  0.7802273E+02  0.3583815E-01 -0.1419583E-04  0.4789901E-05  0.2606661E+03  0.1200274E+00
  0.1280000E+02  0.7802273E+02 -0.4147150E+00 -0.1419583E-04  0.2671757E-05  0.2606661E+03 -0.1402897E+01
  0.1290000E+02  0.7802273E+02 -0.8145006E+00 -0.1419583E-04  0.1068610E-05  0.2606661E+03 -0.2754111E+01
  0.1300000E+02  0.7802273E+02 -0.1124507E+01 -0.1419583E-04  0.1332804E-06  0.2606661E+03 -0.3801765E+01
  0.1310000E+02  0.7802273E+02 -0.1315490E+01 -0.1419583E-04 -0.5772045E-07  0.2606661E+03 -0.4447031E+01
  0.1320000E+02  0.7802273E+02 -0.1370704E+01 -0.1419583E-04  0.4891047E-06  0.2606661E+03 -0.4633336E+01
  0.1330000E+02  0.7802273E+02 -0.1287359E+01 -0.1419583E-04  0.1685055E-05  0.2606661E+03 -0.4351279E+01
  0.1340000E+02  0.7802273E+02 -0.1076578E+01 -0.1419583E-04  0.3367811E-05  0.2606661E+03 -0.3638494E+01
  0.1350000E+02  0.7802273E+02 -0.7620497E+00 -0.1419583E-04  0.5316852E-05  0.2606661E+03 -0.2575083E+01
  0.1360000E+02  0.7802273E+02 -0.3773866E+00 -0.1419583E-04  0.7274629E-05  0.2606661E+03 -0.1274682E+01
  0.1370000E+02  0.7802273E+02  0.3743179E-01 -0.1419583E-04  0.8971024E-05  0.2606661E+03  0.1275527E+00
  0.1380000E+02  0.7802273E+02  0.4402030E+00 -0.1419583E-04  0.1014969E-04  0.2606661E+03  0.1488965E+01
  0.1390000E+02  0.7802273E+02  0.7907422E+00 -0.1419583E-04  0.1059326E-04  0.2606661E+03  0.2673728E+01
  0.1400000E+02  0.7802273E+02  0.1054923E+01 -0.1419583E-04  0.1014535E-04  0.2606661E+03  0.3566499E+01
  0.1410000E+02  0.7802273E+02  0.1207943E+01 -0.1419583E-04  0.8727520E-05  0.2606661E+03  0.4083467E+01
  0.1420000E+02  0.7802273E+02  0.1236629E+01 -0.1419583E-04  0.6349275E-05  0.2606661E+03  0.4180129E+01
  0.1430000E+02  0.7802273E+02  0.1140560E+01 -0.1419583E-04  0.3110073E-05  0.2606661E+03  0.3855090E+01
  0.1440000E+02  0.7802273E+02  0.9318375E+00 -0.1419583E-04 -0.8063110E-06  0.2606661E+03  0.3149289E+01
  0.1450000E+02  0.7802273E+02  0.6336437E+00 -0.1419583E-04 -0.5145580E-05  0.2606661E+03  0.2141109E+01
  0.1460000E+02  0.7802273E+02  0.2776759E+00 -0.1419583E-04 -0.9603042E-05  0.2606661E+03  0.9377174E+00
  0.1470000E+02  0.7802273E+02 -0.9916896E-01 -0.1419583E-04 -0.1384862E-04  0.2606661E+03 -0.3361552E+00
  0.1480000E+02  0.7802273E+02 -0.4586279E+00 -0.1419583E-04 -0.1755461E-04  0.2606661E+03 -0.1551167E+01
  0.1490000E+02  0.7802273E+02 -0.7649002E+00 -0.1419583E-04 -0.2042363E-04  0.2606661E+03 -0.2586312E+01
  0.1500000E+02  0.7802273E+02 -0.9882746E+00 -0.1419583E-04 -0.2221446E-04  0.2606661E+03 -0.3341168E+01
  0.1510000E+02  0.7802273E+02 -0.1107905E+01 -0.1419583E-04 -0.2276333E-04  0.2606661E+03 -0.3745295E+01
  0.1520000E+02  0.7802273E+02 -0.1113791E+01 -0.1419583E-04 -0.2199881E-04  0.2606661E+03 -0.3764917E+01
  0.1530000E+02  0.7802273E+02 -0.1007569E+01 -0.1419583E-04 -0.1994890E-04  0.2606661E+03 -0.3405586E+01
  0.1540000E+02  0.7802273E+02 -0.8021019E+00 -0.1419583E-04 -0.1673979E-04  0.2606661E+03 -0.2710813E+01
  0.1550000E+02  0.7802273E+02 -0.5199980E+00 -0.1419583E-04 -0.1258619E-04  0.2606661E+03 -0.1757040E+01
  0.1560000E+02  0.7802273E+02 -0.1911134E+00 -0.1419583E-04 -0.7773881E-05  0.2606661E+03 -0.6452077E+00
  0.1570000E+02  0.7802273E+02  0.1505409E+00 -0.1419583E-04 -0.2636661E-05  0.2606661E+03  0.5097088E+00
  0.1580000E+02  0.7802273E+02  0.4703584E+00 -0.1419583E-04  0.2471399E-05  0.2606661E+03  0.1590730E+01
  0.1590000E+02  0.7802273E+02  0.7365805E+00 -0.1419583E-04  0.7204691E-05  0.2606661E+03  0.2490508E+01
Zone t="DoF    2",I=   160,F=POINT
  0.0000000E+00  0.2781946E-05  0.2516678E-05  0.3584135E+03  0.5027496E+03 -0.1016048E-06  0.3340305E-05
  0.1000000E+00  0.2781946E-05  0.2428814E-05  0.3584135E+03  0.4874375E+03 -0.1016048E-06  0.3202812E-05
  0.2000000E+00  0.2781946E-05  0.2171194E-05  0.3584135E+03  0.4425983E+03 -0.1016048E-06  0.2800590E-05
  0.3000000E+00  0.2781946E-05  0.1761357E-05  0.3584135E+03  0.3714382E+03 -0.1016048E-06  0.2163636E-05
  0.4000000E+00  0.2781946E-05  0.1227311E-05  0.3584135E+03  0.2790219E+03 -0.1016048E-06  0.1339427E-05
  0.5000000E+00  0.2781946E-05  0.6057601E-06  0.3584135E+03  0.1718781E+03 -0.1016048E-06  0.3893469E-06
  0.6000000E+00  0.2781946E-05 -0.6023601E-07  0.3584135E+03  0.5749484E+02 -0.1016048E-06 -0.6159054E-06
  0.7000000E+00  0.2781946E-05 -0.7240433E-06  0.3584135E+03 -0.5625711E+02 -0.1016048E-06 -0.1601576E-05
  0.8000000E+00  0.2781946E-05 -0.1338520E-05  0.3584135E+03 -0.1617226E+03 -0.1016048E-06 -0.2494369E-05
  0.9000000E+00  0.2781946E-05 -0.1859177E-05  0.3584135E+03 -0.2520353E+03 -0.1016048E-06 -0.3227786E-05
  0.1000000E+01  0.2781946E-05 -0.2247248E-05  0.3584135E+03 -0.3216204E+03 -0.1016048E-06 -0.3746887E-05
  0.1100000E+01  0.2781946E-05 -0.2472469E-05  0.3584135E+03 -0.3665858E+03 -0.1016048E-06 -0.4012135E-05
  0.1200000E+01  0.2781946E-05 -0.2515367E-05  0.3584135E+03 -0.3849733E+03 -0.1016048E-06 -0.4002019E-05
  0.1300000E+01  0.2781946E-05 -0.2368910E-05  0.3584135E+03 -0.3768517E+03 -0.1016048E-06 -0.3714314E-05
  0.1400000E+01  0.2781946E-05 -0.2039359E-05  0.3584135E+03 -0.3442465E+03 -0.1016048E-06 -0.3165915E-05
  0.1500000E+01  0.2781946E-05 -0.1546238E-05  0.3584135E+03 -0.2909174E+03 -0.1016048E-06 -0.2391278E-05
  0.1600000E+01  0.2781946E-05 -0.9213957E-06  0.3584135E+03 -0.2220028E+03 -0.1016048E-06 -0.1439650E-05
  0.1700000E+01  0.2781946E-05 -0.2071515E-06  0.3584135E+03 -0.1435664E+03 -0.1016048E-06 -0.3713375E-06
  0.1800000E+01  0.2781946E-05  0.5463543E-06  0.3584135E+03 -0.6208311E+02 -0.1016048E-06  0.7466982E-06
  0.1900000E+01  0.2781946E-05  0.1284491E-05  0.3584135E+03  0.1609010E+02 -0.1016048E-06  0.1845531E-05
  0.2000000E+01  0.2781946E-05  0.1951915E-05  0.3584135E+03  0.8521453E+02 -0.1016048E-06  0.2858915E-05
  0.2100000E+01  0.2781946E-05  0.2496560E-05  0.3584135E+03  0.1406010E+03 -0.1016048E-06  0.3727517E-05
  0.2200000E+01  0.2781946E-05  0.2873553E-05  0.3584135E+03  0.1789379E+03 -0.1016048E-06  0.4402480E-05
  0.2300000E+01  0.2781946E-05  0.3048775E-05  0.3584135E+03  0.1984935E+03 -0.1016048E-06  0.4848087E-05
  0.2400000E+01  0.2781946E-05  0.3001762E-05  0.3584135E+03  0.1991764E+03 -0.1016048E-06  0.5043370E-05
  0.2500000E+01  0.2781946E-05  0.2727722E-05  0.3584135E+03  0.1824588E+03 -0.1016048E-06  0.4982639E-05
  0.2600000E+01  0.2781946E-05  0.2238459E-05  0.3584135E+03  0.1511702E+03 -0.1016048E-06  0.4674974E-05
  0.2700000E+01  0.2781946E-05  0.1562092E-05  0.3584135E+03  0.1091858E+03 -0.1016048E-06  0.4142790E-05
  0.2800000E+01  0.2781946E-05  0.7415453E-06  0.3584135E+03  0.6104050E+02 -0.1016048E-06  0.3419623E-05
  0.2900000E+01  0.2781946E-05 -0.1681649E-06  0.3584135E+03  0.1150300E+02 -0.1016048E-06  0.2547439E-05
  0.3000000E+01  0.2781946E-05 -0.1103621E-05  0.3584135E+03 -0.3484843E+02 -0.1016048E-06  0.1573612E-05
  0.3100000E+01  0.2781946E-05 -0.1997516E-05  0.3584135E+03 -0.7401588E+02 -0.1016048E-06  0.5478803E-06
  0.3200000E+01  0.2781946E-05 -0.2783570E-05  0.3584135E+03 -0.1029005E+03 -0.1016048E-06 -0.4805329E-06
  0.3300000E+01  0.2781946E-05 -0.3401585E-05  0.3584135E+03 -0.1195282E+03 -0.1016048E-06 -0.1465477E-05
  0.3400000E+01  0.2781946E-05 -0.3802156E-05  0.3584135E+03 -0.1231641E+03 -0.1016048E-06 -0.2365931E-05
  0.3500000E+01  0.2781946E-05 -0.3950718E-05  0.3584135E+03 -0.1143115E+03 -0.1016048E-06 -0.3147522E-05
  0.3600000E+01  0.2781946E-05 -0.3830568E-05  0.3584135E+03 -0.9459913E+02 -0.1016048E-06 -0.3783501E-05
  0.3700000E+01  0.2781946E-05 -0.3444587E-05  0.3584135E+03 -0.6657322E+02 -0.1016048E-06 -0.4255159E-05
  0.3800000E+01  0.2781946E-05 -0.2815492E-05  0.3584135E+03 -0.3341539E+02 -0.1016048E-06 -0.4551792E-05
  0.3900000E+01  0.2781946E-05 -0.1984538E-05  0.3584135E+03  0.1384392E+01 -0.1016048E-06 -0.4670299E-05
  0.4000000E+01  0.2781946E-05 -0.1008787E-05  0.3584135E+03  0.3436679E+02 -0.1016048E-06 -0.4614498E-05
  0.4100000E+01  0.2781946E-05  0.4298549E-07  0.3584135E+03  0.6242557E+02 -0.1016048E-06 -0.4394288E-05
  0.4200000E+01  0.2781946E-05  0.1095337E-05  0.3584135E+03  0.8308114E+02 -0.1016048E-06 -0.4024735E-05
  0.4300000E+01  0.2781946E-05  0.2071818E-05  0.3584135E+03  0.9468400E+02 -0.1016048E-06 -0.3525147E-05
  0.4400000E+01  0.2781946E-05  0.2900878E-05  0.3584135E+03  0.9653236E+02 -0.1016048E-06 -0.2918189E-05
  0.4500000E+01  0.2781946E-05  0.3521429E-05  0.3584135E+03  0.8889532E+02 -0.1016048E-06 -0.2229049E-05
  0.4600000E+01  0.2781946E-05  0.3887676E-05  0.3584135E+03  0.7294326E+02 -0.1016048E-06 -0.1484633E-05
  0.4700000E+01  0.2781946E-05  0.3972827E-05  0.3584135E+03  0.5059700E+02 -0.1016048E-06 -0.7128321E-06
  0.4800000E+01  0.2781946E-05  0.3771329E-05  0.3584135E+03  0.2431195E+02 -0.1016048E-06  0.5826703E-07
  0.4900000E+01  0.2781946E-05  0.3299453E-05  0.3584135E+03 -0.3180090E+01 -0.1016048E-06  0.8011726E-06
  0.5000000E+01  0.2781946E-05  0.2594133E-05  0.3584135E+03 -0.2914497E+02 -0.1016048E-06  0.1489817E-05
  0.5100000E+01  0.2781946E-05  0.1710164E-05  0.3584135E+03 -0.5110903E+02 -0.1016048E-06  0.2100438E-05
  0.5200000E+01  0.2781946E-05  0.7159466E-06  0.3584135E+03 -0.6708752E+02 -0.1016048E-06  0.2612469E-05
  0.5300000E+01  0.2781946E-05 -0.3118611E-06  0.3584135E+03 -0.7575667E+02 -0.1016048E-06  0.3009389E-05
  0.5400000E+01  0.2781946E-05 -0.1294422E-05  0.3584135E+03 -0.7655703E+02 -0.1016048E-06  0.3279516E-05
  0.5500000E+01  0.2781946E-05 -0.2156929E-05  0.3584135E+03 -0.6971767E+02 -0.1016048E-06  0.3416607E-05
  0.5600000E+01  0.2781946E-05 -0.2834552E-05  0.3584135E+03 -0.5620522E+02 -0.1016048E-06  0.3420236E-05
  0.5700000E+01  0.2781946E-05 -0.3277539E-05  0.3584135E+03 -0.3760214E+02 -0.1016048E-06  0.3295873E-05
  0.5800000E+01  0.2781946E-05 -0.3455117E-05  0.3584135E+03 -0.1593126E+02 -0.1016048E-06  0.3054597E-05
  0.5900000E+01  0.2781946E-05 -0.3357842E-05  0.3584135E+03  0.6557406E+01 -0.1016048E-06  0.2712501E-05
  0.6000000E+01  0.2781946E-05 -0.2998197E-05  0.3584135E+03  0.2761443E+02 -0.1016048E-06  0.2289663E-05
  0.6100000E+01  0.2781946E-05 -0.2409402E-05  0.3584135E+03  0.4520974E+02 -0.1016048E-06  0.1808915E-05
  0.6200000E+01  0.2781946E-05 -0.1642533E-05  0.3584135E+03  0.5772412E+02 -0.1016048E-06  0.1294335E-05
  0.6300000E+01  0.2781946E-05 -0.7622501E-06  0.3584135E+03  0.6409299E+02 -0.1016048E-06  0.7696825E-06
  0.6400000E+01  0.2781946E-05  0.1586697E-06  0.3584135E+03  0.6389297E+02 -0.1016048E-06  0.2568677E-06
  0.6500000E+01  0.2781946E-05  0.1045294E-05  0.3584135E+03  0.5736156E+02 -0.1016048E-06 -0.2254224E-06
  0.6600000E+01  0.2781946E-05  0.1826693E-05  0.3584135E+03  0.4535254E+02 -0.1016048E-06 -0.6627492E-06
  0.6700000E+01  0.2781946E-05  0.2441690E-05  0.3584135E+03  0.2923233E+02 -0.1016048E-06 -0.1045595E-05
  0.6800000E+01  0.2781946E-05  0.2843714E-05  0.3584135E+03  0.1072986E+02 -0.1016048E-06 -0.1369486E-05
  0.6900000E+01  0.2781946E-05  0.3004425E-05  0.3584135E+03 -0.8245395E+01 -0.1016048E-06 -0.1634684E-05
  0.7000000E+01  0.2781946E-05  0.2915743E-05  0.3584135E+03 -0.2579691E+02 -0.1016048E-06 -0.1845360E-05
  0.7100000E+01  0.2781946E-05  0.2590187E-05  0.3584135E+03 -0.4022678E+02 -0.1016048E-06 -0.2008399E-05
  0.7200000E+01  0.2781946E-05  0.2059491E-05  0.3584135E+03 -0.5019805E+02 -0.1016048E-06 -0.2131940E-05
  0.7300000E+01  0.2781946E-05  0.1371656E-05  0.3584135E+03 -0.5485472E+02 -0.1016048E-06 -0.2223790E-05
  0.7400000E+01  0.2781946E-05  0.5866720E-06  0.3584135E+03 -0.5389274E+02 -0.1016048E-06 -0.2289953E-05
  0.7500000E+01  0.2781946E-05 -0.2286504E-06  0.3584135E+03 -0.4757383E+02 -0.1016048E-06 -0.2333359E-05
  0.7600000E+01  0.2781946E-05 -0.1006359E-05  0.3584135E+03 -0.3668283E+02 -0.1016048E-06 -0.2353030E-05
  0.7700000E+01  0.2781946E-05 -0.1682982E-05  0.3584135E+03 -0.2243540E+02 -0.1016048E-06 -0.2343790E-05
  0.7800000E+01  0.2781946E-05 -0.2204681E-05  0.3584135E+03 -0.6345778E+01 -0.1016048E-06 -0.2296538E-05
  0.7900000E+01  0.2781946E-05 -0.2531498E-05  0.3584135E+03  0.9931995E+01 -0.1016048E-06 -0.2199140E-05
  0.8000000E+01  0.2781946E-05 -0.2640331E-05  0.3584135E+03  0.2477079E+02 -0.1016048E-06 -0.2037885E-05
  0.8100000E+01  0.2781946E-05 -0.2526420E-05  0.3584135E+03  0.3673219E+02 -0.1016048E-06 -0.1799315E-05
  0.8200000E+01  0.2781946E-05 -0.2203304E-05  0.3584135E+03  0.4470235E+02 -0.1016048E-06 -0.1472334E-05
  0.8300000E+01  0.2781946E-05 -0.1701206E-05  0.3584135E+03  0.4799488E+02 -0.1016048E-06 -0.1050291E-05
  0.8400001E+01  0.2781946E-05 -0.1064121E-05  0.3584135E+03  0.4640670E+02 -0.1016048E-06 -0.5328780E-06
  0.8500000E+01  0.2781946E-05 -0.3458020E-06  0.3584135E+03  0.4022602E+02 -0.1016048E-06  0.7242961E-07
  0.8600000E+01  0.2781946E-05  0.3949478E-06  0.3584135E+03  0.3019003E+02 -0.1016048E-06  0.7496135E-06
  0.8700000E+01  0.2781946E-05  0.1099198E-05  0.3584135E+03  0.1740093E+02 -0.1016048E-06  0.1474080E-05
  0.8800000E+01  0.2781946E-05  0.1712726E-05  0.3584135E+03  0.3205878E+01 -0.1016048E-06  0.2213576E-05
  0.8900001E+01  0.2781946E-05  0.2190255E-05  0.3584135E+03 -0.1094158E+02 -0.1016048E-06  0.2929881E-05
  0.9000000E+01  0.2781946E-05  0.2498756E-05  0.3584135E+03 -0.2363069E+02 -0.1016048E-06  0.3581299E-05
  0.9100000E+01  0.2781946E-05  0.2619702E-05  0.3584135E+03 -0.3363126E+02 -0.1016048E-06  0.4125741E-05
  0.9200000E+01  0.2781946E-05  0.2549928E-05  0.3584135E+03 -0.4001163E+02 -0.1016048E-06  0.4524099E-05
  0.9300000E+01  0.2781946E-05  0.2301219E-05  0.3584135E+03 -0.4222496E+02 -0.1016048E-06  0.4743641E-05
  0.9400001E+01  0.2781946E-05  0.1898692E-05  0.3584135E+03 -0.4015288E+02 -0.1016048E-06  0.4761169E-05
  0.9500000E+01  0.2781946E-05  0.1378139E-05  0.3584135E+03 -0.3410794E+02 -0.1016048E-06  0.4565511E-05
  0.9600000E+01  0.2781946E-05  0.7826079E-06  0.3584135E+03 -0.2479114E+02 -0.1016048E-06  0.4159209E-05
  0.9700000E+01  0.2781946E-05  0.1586156E-06  0.3584135E+03 -0.1321336E+02 -0.1016048E-06  0.3559078E-05
  0.9800000E+01  0.2781946E-05 -0.4477757E-06  0.3584135E+03 -0.5865050E+00 -0.1016048E-06  0.2795587E-05
  0.9900001E+01  0.2781946E-05 -0.9945589E-06  0.3584135E+03  0.1180121E+02 -0.1016048E-06  0.1911130E-05
  0.1000000E+02  0.2781946E-05 -0.1446826E-05  0.3584135E+03  0.2271608E+02 -0.1016048E-06  0.9571245E-06
  0.1010000E+02  0.2781946E-05 -0.1779065E-05  0.3584135E+03  0.3110098E+02 -0.1016048E-06 -0.9740447E-08
  0.1020000E+02  0.2781946E-05 -0.1976449E-05  0.3584135E+03  0.3617583E+02 -0.1016048E-06 -0.9317429E-06
  0.1030000E+02  0.2781946E-05 -0.2035213E-05  0.3584135E+03  0.3750982E+02 -0.1016048E-06 -0.1754738E-05
  0.1040000E+02  0.2781946E-05 -0.1962053E-05  0.3584135E+03  0.3505564E+02 -0.1016048E-06 -0.2432365E-05
  0.1050000E+02  0.2781946E-05 -0.1772695E-05  0.3584135E+03  0.2914640E+02 -0.1016048E-06 -0.2929837E-05
  0.1060000E+02  0.2781946E-05 -0.1489875E-05  0.3584135E+03  0.2045233E+02 -0.1016048E-06 -0.3226751E-05
  0.1070000E+02  0.2781946E-05 -0.1140911E-05  0.3584135E+03  0.9907518E+01 -0.1016048E-06 -0.3318634E-05
  0.1080000E+02  0.2781946E-05 -0.7551340E-06  0.3584135E+03 -0.1390561E+01 -0.1016048E-06 -0.3217171E-05
  0.1090000E+02  0.2781946E-05 -0.3614323E-06  0.3584135E+03 -0.1229309E+02 -0.1016048E-06 -0.2949013E-05
  0.1100000E+02  0.2781946E-05  0.1387181E-07  0.3584135E+03 -0.2171685E+02 -0.1016048E-06 -0.2553187E-05
  0.1110000E+02  0.2781946E-05  0.3487255E-06  0.3584135E+03 -0.2875101E+02 -0.1016048E-06 -0.2077427E-05
  0.1120000E+02  0.2781946E-05  0.6263944E-06  0.3584135E+03 -0.3274353E+02 -0.1016048E-06 -0.1573699E-05
  0.1130000E+02  0.2781946E-05  0.8359395E-06  0.3584135E+03 -0.3336195E+02 -0.1016048E-06 -0.1093285E-05
  0.1140000E+02  0.2781946E-05  0.9721592E-06  0.3584135E+03 -0.3061819E+02 -0.1016048E-06 -0.6819706E-06
  0.1150000E+02  0.2781946E-05  0.1034990E-05  0.3584135E+03 -0.2486148E+02 -0.1016048E-06 -0.3756805E-06
  0.1160000E+02  0.2781946E-05  0.1028614E-05  0.3584135E+03 -0.1673417E+02 -0.1016048E-06 -0.1970844E-06
  0.1170000E+02  0.2781946E-05  0.9603656E-06  0.3584135E+03 -0.7103173E+01 -0.1016048E-06 -0.1534724E-06