VARIABLES="w (rad/s)"
"abs(F   1   1)" "angle(F   1   1)"
"abs(F   1   2)" "angle(F   1   2)"
"abs(F   1   3)" "angle(F   1   3)"
Zone t="Diffraction force - beta =   0.000 deg",I=    32,F=POINT
  0.1000000E+00  0.7218535E+02 -0.1570797E+01  0.1020391E+06 -0.5259479E-05  0.3011443E+03 -0.1570783E+01
  0.2000000E+00  0.2881101E+03 -0.1570796E+01  0.1015117E+06 -0.8367670E-04  0.1202127E+04 -0.1570797E+01
  0.3000000E+00  0.6461670E+03 -0.1570795E+01  0.1006176E+06 -0.4198562E-03  0.2696103E+04 -0.1570795E+01
  0.4000000E+00  0.1143178E+04 -0.1570790E+01  0.9934855E+05 -0.1310090E-02  0.4771850E+04 -0.1570787E+01
  0.5000000E+00  0.1774164E+04 -0.1570769E+01  0.9770511E+05 -0.3145078E-02  0.7408817E+04 -0.1570769E+01
  0.6000001E+00  0.2533142E+04 -0.1570717E+01  0.9569868E+05 -0.6386104E-02  0.1058336E+05 -0.1570719E+01
  0.7000000E+00  0.3415702E+04 -0.1570606E+01  0.9335203E+05 -0.1153714E-01  0.1428045E+05 -0.1570606E+01
  0.8000001E+00  0.4408978E+04 -0.1570391E+01  0.9069683E+05 -0.1911312E-01  0.1844656E+05 -0.1570391E+01
  0.9000000E+00  0.5507887E+04 -0.1570019E+01  0.8778488E+05 -0.2961360E-01  0.2306238E+05 -0.1570018E+01
  0.1000000E+01  0.6696767E+04 -0.1569421E+01  0.8466015E+05 -0.4349456E-01  0.2806561E+05 -0.1569421E+01
  0.1100000E+01  0.7966495E+04 -0.1568529E+01  0.8139056E+05 -0.6116002E-01  0.3341955E+05 -0.1568529E+01
  0.1200000E+01  0.9295738E+04 -0.1567279E+01  0.7801059E+05 -0.8292105E-01  0.3903489E+05 -0.1567279E+01
  0.1300000E+01  0.1067307E+05 -0.1565632E+01  0.7459291E+05 -0.1090652E+00  0.4487093E+05 -0.1565632E+01
  0.1400000E+01  0.1207435E+05 -0.1563587E+01  0.7117410E+05 -0.1397482E+00  0.5082113E+05 -0.1563588E+01
  0.1500000E+01  0.1347222E+05 -0.1561215E+01  0.6778012E+05 -0.1750724E+00  0.5677415E+05 -0.1561216E+01
  0.1600000E+01  0.1484332E+05 -0.1558688E+01  0.6446639E+05 -0.2151856E+00  0.6263446E+05 -0.1558689E+01
  0.1700000E+01  0.1615892E+05 -0.1556284E+01  0.6125131E+05 -0.2600685E+00  0.6827957E+05 -0.1556286E+01
  0.1800000E+01  0.1738395E+05 -0.1554415E+01  0.5813553E+05 -0.3095975E+00  0.7355773E+05 -0.1554416E+01
  0.1900000E+01  0.1848616E+05 -0.1553644E+01  0.5514092E+05 -0.3638163E+00  0.7833442E+05 -0.1553645E+01
  0.2000000E+01  0.1944095E+05 -0.1554687E+01  0.5227352E+05 -0.4226536E+00  0.8250304E+05 -0.1554687E+01
  0.2100000E+01  0.2022664E+05 -0.1558357E+01  0.4954232E+05 -0.4860594E+00  0.8596803E+05 -0.1558357E+01
  0.2200000E+01  0.2082665E+05 -0.1565519E+01  0.4695753E+05 -0.5540349E+00  0.8865725E+05 -0.1565518E+01
  0.2300000E+01  0.2123427E+05 -0.1577049E+01  0.4450609E+05 -0.6263974E+00  0.9053610E+05 -0.1577048E+01
  0.2400000E+01  0.2145328E+05 -0.1593774E+01  0.4219121E+05 -0.7031479E+00  0.9161713E+05 -0.1593773E+01
  0.2500000E+01  0.2149406E+05 -0.1616399E+01  0.4001459E+05 -0.7842662E+00  0.9194103E+05 -0.1616398E+01
  0.2600000E+01  0.2137434E+05 -0.1645493E+01  0.3795864E+05 -0.8695707E+00  0.9157791E+05 -0.1645495E+01
  0.2700000E+01  0.2111414E+05 -0.1681479E+01  0.3601931E+05 -0.9590072E+00  0.9061225E+05 -0.1681480E+01
  0.2800000E+01  0.2074132E+05 -0.1724665E+01  0.3419875E+05 -0.1052683E+01  0.8915977E+05 -0.1724670E+01
  0.2900000E+01  0.2027723E+05 -0.1775114E+01  0.3248910E+05 -0.1150472E+01  0.8730793E+05 -0.1775125E+01
  0.3000000E+01  0.1974473E+05 -0.1832891E+01  0.3087892E+05 -0.1252299E+01  0.8515555E+05 -0.1832913E+01
  0.3100000E+01  0.1916009E+05 -0.1897823E+01  0.2935904E+05 -0.1358068E+01  0.8276764E+05 -0.1897849E+01
  0.3200000E+01  0.1854452E+05 -0.1969954E+01  0.2793181E+05 -0.1467998E+01  0.8024081E+05 -0.1969992E+01
