VARIABLES="w (rad/s)"
"abs(F   1   1)" "angle(F   1   1)"
"abs(F   1   2)" "angle(F   1   2)"
"abs(F   1   3)" "angle(F   1   3)"
Zone t="FKforce - beta =   0.000",I=    32,F=POINT
  0.1000000E+00  0.2149870E+04 -0.1570798E+01  0.9205983E+04 -0.4867045E-09  0.2157772E+04  0.1570792E+01
  0.2000000E+00  0.8494828E+04 -0.1570797E+01  0.2862439E+04  0.2291835E-08  0.8537202E+04  0.1570798E+01
  0.3000000E+00  0.1872703E+05 -0.1570796E+01  0.7370195E+04  0.3141593E+01  0.1886147E+05  0.1570796E+01
  0.4000000E+00  0.3235349E+05 -0.1570796E+01  0.2099638E+05  0.3141593E+01  0.3268513E+05  0.1570797E+01
  0.5000000E+00  0.4872528E+05 -0.1570796E+01  0.3736833E+05 -0.3141593E+01  0.4941664E+05  0.1570796E+01
  0.6000001E+00  0.6707403E+05 -0.1570796E+01  0.5571714E+05 -0.3141593E+01  0.6834799E+05  0.1570796E+01
  0.7000000E+00  0.8655645E+05 -0.1570796E+01  0.7519980E+05 -0.3141593E+01  0.8868908E+05  0.1570796E+01
  0.8000001E+00  0.1063002E+06 -0.1570796E+01  0.9494341E+05 -0.3141593E+01  0.1096048E+06  0.1570796E+01
  0.9000000E+00  0.1254502E+06 -0.1570796E+01  0.1140930E+06 -0.3141593E+01  0.1302530E+06  0.1570796E+01
  0.1000000E+01  0.1432134E+06 -0.1570796E+01  0.1318548E+06 -0.3141593E+01  0.1498218E+06  0.1570796E+01
  0.1100000E+01  0.1588954E+06 -0.1570796E+01  0.1475348E+06  0.3141593E+01  0.1675627E+06  0.1570796E+01
  0.1200000E+01  0.1719321E+06 -0.1570796E+01  0.1605688E+06 -0.3141593E+01  0.1828196E+06  0.1570796E+01
  0.1300000E+01  0.1819103E+06 -0.1570796E+01  0.1705425E+06 -0.3141593E+01  0.1950549E+06  0.1570796E+01
  0.1400000E+01  0.1885794E+06 -0.1570796E+01  0.1772068E+06 -0.3141593E+01  0.2038653E+06  0.1570796E+01
  0.1500000E+01  0.1918533E+06 -0.1570796E+01  0.1804747E+06  0.3141593E+01  0.2089939E+06  0.1570796E+01
  0.1600000E+01  0.1918014E+06 -0.1570796E+01  0.1804148E+06 -0.3141593E+01  0.2103366E+06  0.1570796E+01
  0.1700000E+01  0.1886309E+06 -0.1570796E+01  0.1772363E+06  0.3141593E+01  0.2079381E+06  0.1570796E+01
  0.1800000E+01  0.1826672E+06 -0.1570796E+01  0.1712644E+06 -0.3141593E+01  0.2019834E+06  0.1570796E+01
  0.1900000E+01  0.1743238E+06 -0.1570796E+01  0.1629125E+06  0.3141593E+01  0.1927844E+06  0.1570796E+01
  0.2000000E+01  0.1640736E+06 -0.1570796E+01  0.1526552E+06  0.3141593E+01  0.1807599E+06  0.1570796E+01
  0.2100000E+01  0.1524168E+06 -0.1570796E+01  0.1409932E+06 -0.3141593E+01  0.1664099E+06  0.1570796E+01
  0.2200000E+01  0.1398544E+06 -0.1570796E+01  0.1284273E+06 -0.3141593E+01  0.1502900E+06  0.1570796E+01
  0.2300000E+01  0.1268607E+06 -0.1570796E+01  0.1154341E+06 -0.3141593E+01  0.1329818E+06  0.1570796E+01
  0.2400000E+01  0.1138642E+06 -0.1570796E+01  0.1024413E+06  0.3141593E+01  0.1150644E+06  0.1570796E+01
  0.2500000E+01  0.1012306E+06 -0.1570796E+01  0.8981710E+05  0.3141593E+01  0.9708913E+05  0.1570796E+01
  0.2600000E+01  0.8925433E+05 -0.1570796E+01  0.7785516E+05 -0.3141593E+01  0.7955435E+05  0.1570796E+01
  0.2700000E+01  0.7815487E+05 -0.1570796E+01  0.6677569E+05 -0.3141593E+01  0.6288819E+05  0.1570796E+01
  0.2800000E+01  0.6807634E+05 -0.1570796E+01  0.5672415E+05  0.3141593E+01  0.4743538E+05  0.1570796E+01
  0.2900000E+01  0.5909439E+05 -0.1570796E+01  0.4777614E+05  0.3141593E+01  0.3345011E+05  0.1570796E+01
  0.3000000E+01  0.5122500E+05 -0.1570796E+01  0.3994801E+05  0.3141593E+01  0.2109549E+05  0.1570796E+01
  0.3100000E+01  0.4443451E+05 -0.1570796E+01  0.3320652E+05 -0.3141593E+01  0.1044800E+05  0.1570796E+01
  0.3200000E+01  0.3865250E+05 -0.1570796E+01  0.2748158E+05  0.3141593E+01  0.1506846E+04  0.1570797E+01
