VARIABLES="w (rad/s)"
"abs(F   1   1)" "angle(F   1   1)"
"abs(F   1   2)" "angle(F   1   2)"
"abs(F   1   3)" "angle(F   1   3)"
Zone t="Diffraction force - beta =   0.000 deg",I=    32,F=POINT
  0.1000000E+00  0.1314973E+04 -0.1570796E+01  0.1077208E+04 -0.3140100E+01  0.4169326E+03 -0.1570796E+01
  0.2000000E+00  0.5308658E+04 -0.1570782E+01  0.4276094E+04 -0.3136187E+01  0.1672141E+04 -0.1570779E+01
  0.3000000E+00  0.1196706E+05 -0.1570641E+01  0.9489319E+04 -0.3131343E+01  0.3676154E+04 -0.1570600E+01
  0.4000000E+00  0.2134238E+05 -0.1569958E+01  0.1653399E+05 -0.3127487E+01  0.6344274E+04 -0.1569723E+01
  0.5000000E+00  0.3359554E+05 -0.1567761E+01  0.2513779E+05 -0.3126277E+01  0.9552025E+04 -0.1566837E+01
  0.6000001E+00  0.4903271E+05 -0.1562274E+01  0.3506080E+05 -0.3128549E+01  0.1316506E+05 -0.1559423E+01
  0.7000000E+00  0.6814283E+05 -0.1550761E+01  0.4623591E+05 -0.3133832E+01  0.1708245E+05 -0.1543351E+01
  0.8000001E+00  0.9166029E+05 -0.1529450E+01  0.5840273E+05 -0.3139890E+01  0.2114785E+05 -0.1512408E+01
  0.9000000E+00  0.1208738E+06 -0.1493512E+01  0.7169008E+05  0.3140009E+01  0.2517948E+05 -0.1457577E+01
  0.1000000E+01  0.1568689E+06 -0.1436833E+01  0.8580073E+05 -0.3139259E+01  0.2897199E+05 -0.1366201E+01
  0.1100000E+01  0.2015823E+06 -0.1351880E+01  0.1006108E+06 -0.3123998E+01  0.3226147E+05 -0.1219574E+01
  0.1200000E+01  0.2561322E+06 -0.1228762E+01  0.1146851E+06 -0.3095003E+01  0.3465447E+05 -0.9872863E+00
  0.1300000E+01  0.3182943E+06 -0.1056871E+01  0.1274794E+06 -0.3051425E+01  0.3643889E+05 -0.6340900E+00
  0.1400000E+01  0.3814697E+06 -0.8286536E+00  0.1371633E+06 -0.2996612E+01  0.3869636E+05 -0.1296699E+00
  0.1500000E+01  0.4300268E+06 -0.5492396E+00  0.1421671E+06 -0.2936027E+01  0.4355838E+05  0.4967042E+00
  0.1600000E+01  0.4452433E+06 -0.2477675E+00  0.1415516E+06 -0.2878854E+01  0.5194473E+05  0.1095026E+01
  0.1700000E+01  0.4264624E+06  0.3814679E-01  0.1358310E+06 -0.2832898E+01  0.6103680E+05  0.1577828E+01
  0.1800000E+01  0.3873961E+06  0.2840599E+00  0.1260334E+06 -0.2807397E+01  0.6783067E+05  0.1926955E+01
  0.1900000E+01  0.3432518E+06  0.4888941E+00  0.1139253E+06 -0.2808472E+01  0.7163535E+05  0.2177456E+01
  0.2000000E+01  0.3014300E+06  0.6593234E+00  0.1012298E+06 -0.2842539E+01  0.7268502E+05  0.2357345E+01
  0.2100000E+01  0.2644121E+06  0.8042877E+00  0.8949830E+05 -0.2913038E+01  0.7130927E+05  0.2485494E+01
  0.2200000E+01  0.2323220E+06  0.9308712E+00  0.7993749E+05 -0.3017583E+01  0.6816600E+05  0.2582849E+01
  0.2300000E+01  0.2044557E+06  0.1043211E+01  0.7324102E+05  0.3136186E+01  0.6358883E+05  0.2657845E+01
  0.2400000E+01  0.1798167E+06  0.1143223E+01  0.6944922E+05  0.2998098E+01  0.5776618E+05  0.2711505E+01
  0.2500000E+01  0.1576780E+06  0.1232898E+01  0.6800755E+05  0.2871483E+01  0.5113878E+05  0.2752507E+01
  0.2600000E+01  0.1376216E+06  0.1313237E+01  0.6807167E+05  0.2768989E+01  0.4410547E+05  0.2785733E+01
  0.2700000E+01  0.1190033E+06  0.1384203E+01  0.6888896E+05  0.2694400E+01  0.3691800E+05  0.2804431E+01
  0.2800000E+01  0.1015363E+06  0.1447065E+01  0.7014859E+05  0.2648642E+01  0.2989076E+05  0.2807233E+01
  0.2900000E+01  0.8510592E+05  0.1501791E+01  0.7712134E+05  0.2646048E+01  0.2331480E+05  0.2795249E+01
  0.3000000E+01  0.6965900E+05  0.1548071E+01  0.6290764E+05  0.2602469E+01  0.1739800E+05  0.2759426E+01
  0.3100000E+01  0.5506069E+05  0.1585143E+01  0.6328877E+05  0.2608547E+01  0.1244104E+05  0.2668742E+01
  0.3200000E+01  0.4138925E+05  0.1613014E+01  0.6121988E+05  0.2623368E+01  0.8669670E+04  0.2486076E+01
