VARIABLES="w (rad/s)"
"A   1   1" "B   1   1"
"A   1   2" "B   1   2"
"A   1   3" "B   1   3"
Zone t="Motion of body    1 in DoF   1",I=    32,F=POINT
  0.1000000E+00  0.1317946E+06  0.2885689E-02 -0.9123161E-02 -0.1317750E-05  0.4192593E+05  0.1117140E-02
  0.2000000E+00  0.1339203E+06  0.3765357E+00 -0.7247403E-02 -0.1510788E-04  0.4273742E+05  0.1482724E+00
  0.3000000E+00  0.1356744E+06  0.6337115E+01  0.4439552E-03  0.2053369E-03  0.4293453E+05  0.2460008E+01
  0.4000000E+00  0.1382105E+06  0.4653219E+02 -0.5996227E-03  0.4146007E-03  0.4333248E+05  0.1771743E+02
  0.5000000E+00  0.1419417E+06  0.2167957E+03  0.1875758E-02 -0.7053044E-03  0.4390022E+05  0.8039710E+02
  0.6000001E+00  0.1471550E+06  0.7582743E+03  0.8647639E-02 -0.1337841E-02  0.4466808E+05  0.2717085E+03
  0.7000000E+00  0.1541226E+06  0.2179566E+04 -0.3349534E-01  0.4741678E-02  0.4571253E+05  0.7484357E+03
  0.8000001E+00  0.1631039E+06  0.5438731E+04 -0.2929248E-01 -0.1344791E-02  0.4695076E+05  0.1771530E+04
  0.9000000E+00  0.1745068E+06  0.1223305E+05  0.4463726E-02 -0.1842417E-03  0.4817448E+05  0.3728899E+04
  0.1000000E+01  0.1876680E+06  0.2535150E+05 -0.1890206E-01  0.9421706E-03  0.4910794E+05  0.7122042E+04
  0.1100000E+01  0.2016367E+06  0.4924352E+05 -0.8823113E-02  0.1672536E-02  0.4908160E+05  0.1248486E+05
  0.1200000E+01  0.2127154E+06  0.9015542E+05 -0.1919935E-01  0.7918805E-02  0.4703240E+05  0.2003512E+05
  0.1300000E+01  0.2125782E+06  0.1534219E+06 -0.6967966E-02 -0.4004359E-02  0.4173970E+05  0.2877814E+05
  0.1400000E+01  0.1895288E+06  0.2359283E+06  0.1507810E-01 -0.7783473E-02  0.3241577E+05  0.3509764E+05
  0.1500000E+01  0.1356925E+06  0.3121049E+06 -0.2329429E-02  0.1589483E-01  0.2098453E+05  0.3255447E+05
  0.1600000E+01  0.6501052E+05  0.3399345E+06  0.4101396E-02 -0.1050517E-01  0.1332397E+05  0.1866576E+05
  0.1700000E+01  0.7458578E+04  0.3084747E+06  0.1571480E-01  0.3824846E-01  0.1300992E+05 -0.4382619E+03
  0.1800000E+01 -0.2219142E+05  0.2455490E+06 -0.6331470E-02  0.1964035E-01  0.1809127E+05 -0.1585263E+05
  0.1900000E+01 -0.2971295E+05  0.1807857E+06 -0.3120021E-02  0.4287805E-02  0.2483083E+05 -0.2474046E+05
  0.2000000E+01 -0.2514039E+05  0.1271252E+06  0.3054202E-02  0.1643581E-01  0.3096930E+05 -0.2799468E+05
  0.2100000E+01 -0.1555971E+05  0.8648412E+05 -0.6447179E-02  0.3664486E-02  0.3568091E+05 -0.2744060E+05
  0.2200000E+01 -0.4659846E+04  0.5693061E+05 -0.1861832E-02  0.9578161E-02  0.3906642E+05 -0.2471325E+05
  0.2300000E+01  0.5862330E+04  0.3607880E+05 -0.8532794E-02  0.8789249E-02  0.4128011E+05 -0.2086841E+05
  0.2400000E+01  0.1530994E+05  0.2187139E+05 -0.7233719E-02 -0.6656200E-03  0.4249699E+05 -0.1668611E+05
  0.2500000E+01  0.2346230E+05  0.1254043E+05  0.4792976E-02  0.4704002E-02  0.4302944E+05 -0.1254015E+05
  0.2600000E+01  0.3029659E+05  0.6632161E+04 -0.4093464E-03  0.5080160E-03  0.4308431E+05 -0.8709945E+04
  0.2700000E+01  0.3590921E+05  0.3224224E+04  0.8674021E-03 -0.1955137E-02  0.4279708E+05 -0.5540646E+04
  0.2800000E+01  0.4047854E+05  0.1462739E+04  0.5589042E-02 -0.8412609E-03  0.4232088E+05 -0.3069826E+04
  0.2900000E+01  0.4417122E+05  0.6844752E+03  0.1077200E-01  0.9419540E-02  0.4175225E+05 -0.1210935E+04
  0.3000000E+01  0.4715395E+05  0.4177970E+03 -0.3497362E-01 -0.5961262E-01  0.4117737E+05  0.1831297E+02
  0.3100000E+01  0.4957579E+05  0.3602292E+03 -0.4114644E-04 -0.3509630E-01  0.4067830E+05  0.6674593E+03
  0.3200000E+01  0.5158280E+05  0.3575575E+03  0.3588796E-02  0.2173321E-01  0.4026876E+05  0.9207903E+03
Zone t="Motion of body    1 in DoF   2",I=    32,F=POINT
  0.1000000E+00 -0.1107395E-01 -0.3355555E-05  0.1080610E+06  0.1607013E+02 -0.4982948E-02 -0.9716488E-05
  0.2000000E+00 -0.5210638E-02 -0.1296401E-05  0.1082575E+06  0.1153924E+03 -0.1204014E-02  0.2902746E-04
  0.3000000E+00 -0.3298123E-03  0.5487353E-04  0.1084816E+06  0.3221787E+03 -0.8567174E-03  0.1071841E-03
  0.4000000E+00 -0.2685785E-02  0.1646578E-04  0.1087582E+06  0.5717809E+03 -0.4043579E-02 -0.1544356E-03
  0.5000000E+00  0.1569939E-01  0.8758903E-04  0.1090566E+06  0.7307197E+03  0.3435135E-02  0.8952618E-04
  0.6000001E+00  0.2234498E-01 -0.4949868E-03  0.1097522E+06  0.6674652E+03  0.7692972E-03 -0.4489422E-03
  0.7000000E+00 -0.5469492E-01 -0.2261981E-02  0.1114696E+06  0.3584545E+03 -0.4877363E-02  0.2428293E-03
  0.8000001E+00 -0.1709193E-01  0.2443008E-03  0.1141246E+06  0.2104549E+02 -0.3370046E-02  0.2522022E-03
  0.9000000E+00  0.1776324E-01 -0.1739904E-02  0.1182518E+06  0.2287758E+03  0.9175407E-02 -0.2500415E-03
  0.1000000E+01 -0.2488279E-01 -0.8304238E-02  0.1236128E+06  0.2001226E+04 -0.1292229E-01 -0.1232982E-02
  0.1100000E+01  0.1202020E-01  0.3473938E-02  0.1299559E+06  0.6785074E+04 -0.4421581E-03 -0.1958847E-02
  0.1200000E+01  0.8258820E-02  0.5304813E-03  0.1356607E+06  0.1610148E+05 -0.7338523E-02 -0.1169205E-02
  0.1300000E+01 -0.6288382E-02  0.1410961E-02  0.1399438E+06  0.3130219E+05 -0.4992852E-02 -0.1992226E-02
  0.1400000E+01  0.3089258E-01  0.1127672E-01  0.1406753E+06  0.5223775E+05  0.3332411E-02  0.4299641E-02
  0.1500000E+01  0.3852208E-02 -0.9528875E-02  0.1365346E+06  0.7701666E+05 -0.8566539E-02  0.1962185E-02
  0.1600000E+01 -0.2526045E-02  0.3527796E-01  0.1273776E+06  0.1017363E+06 -0.4832745E-02 -0.3149509E-02
  0.1700000E+01  0.5107487E-01  0.1116471E+00  0.1146700E+06  0.1228273E+06 -0.3971773E-02  0.2243376E-01
  0.1800000E+01 -0.1695474E-01  0.6568366E-01  0.1003737E+06  0.1373331E+06 -0.9220971E-02 -0.3428102E-02
  0.1900000E+01 -0.2868552E-02  0.3816432E-01  0.8640248E+05  0.1445295E+06 -0.4985207E-02  0.3719330E-04
  0.2000000E+01 -0.1990795E-02  0.5275130E-01  0.7408832E+05  0.1448578E+06 -0.2662659E-02 -0.3504753E-04
  0.2100000E+01 -0.2885955E-01  0.5470443E-01  0.6407660E+05  0.1396385E+06 -0.6138030E-02 -0.9886980E-02
  0.2200000E+01 -0.1041239E-01  0.2500260E-01  0.5647105E+05  0.1305138E+06 -0.5130768E-02 -0.1784325E-02
  0.2300000E+01 -0.1007329E-01  0.4758763E-01  0.5112679E+05  0.1188912E+06 -0.9224934E-02 -0.2185822E-02
  0.2400000E+01 -0.1179695E-01  0.1471859E-01  0.4776086E+05  0.1058917E+06 -0.4115105E-02 -0.4869938E-02
  0.2500000E+01 -0.6673431E-02  0.1625180E-01  0.4596938E+05  0.9243695E+05 -0.1539612E-02 -0.4002810E-02
  0.2600000E+01 -0.8150615E-02 -0.5761862E-02  0.4541303E+05  0.7936252E+05 -0.5208529E-03 -0.3783464E-02
  0.2700000E+01 -0.8209016E-02  0.3510803E-01  0.4575078E+05  0.6714155E+05 -0.6552802E-02 -0.4609585E-02
  0.2800000E+01 -0.1596621E-01  0.1587600E-01  0.4648164E+05  0.5614025E+05 -0.3806523E-02 -0.1078057E-01
  0.2900000E+01  0.9756088E-02  0.1095843E-01  0.4486514E+05  0.4832158E+05  0.7346581E-02 -0.2390599E-01
  0.3000000E+01  0.3185113E-01 -0.2209859E-01  0.5240936E+05  0.3449523E+05  0.3882090E-02  0.1198202E-01
  0.3100000E+01  0.2045478E-01  0.3023148E-02  0.5347756E+05  0.2828104E+05 -0.5894323E-02  0.1191270E-01
  0.3200000E+01  0.8859634E-02  0.2282576E-01  0.5519896E+05  0.2240715E+05 -0.2442598E-02  0.1183033E-02
Zone t="Motion of body    1 in DoF   3",I=    32,F=POINT
  0.1000000E+00  0.4203629E+05  0.1083762E-02  0.1465827E-02  0.2268592E-05  0.5254205E+05  0.3392256E-03
  0.2000000E+00  0.4277941E+05  0.1481925E+00 -0.2636462E-02 -0.2537468E-05  0.5288266E+05  0.5822904E-01
  0.3000000E+00  0.4297015E+05  0.2460562E+01  0.5409122E-02  0.1028203E-03  0.5296801E+05  0.9552509E+00
  0.4000000E+00  0.4337091E+05  0.1771582E+02 -0.8793175E-03 -0.7128760E-04  0.5307236E+05  0.6745061E+01
  0.5000000E+00  0.4393817E+05  0.8039382E+02  0.5996466E-02  0.4095529E-03  0.5323199E+05  0.2981372E+02
  0.6000001E+00  0.4470016E+05  0.2717849E+03 -0.2557238E-02  0.8196721E-04  0.5348161E+05  0.9738858E+02
  0.7000000E+00  0.4570697E+05  0.7486168E+03  0.1523324E-02 -0.4539242E-02  0.5372755E+05  0.2570626E+03
  0.8000001E+00  0.4698461E+05  0.1771788E+04 -0.2010181E-01 -0.3034301E-02  0.5403566E+05  0.5770853E+03
  0.9000000E+00  0.4817327E+05  0.3730956E+04  0.1036684E-01  0.5308958E-03  0.5424483E+05  0.1137238E+04
  0.1000000E+01  0.4915781E+05  0.7126854E+04 -0.8005381E-02 -0.5445033E-03  0.5432412E+05  0.2001756E+04
  0.1100000E+01  0.4907370E+05  0.1249462E+05 -0.1840158E-03  0.3902055E-03  0.5402826E+05  0.3167327E+04
  0.1200000E+01  0.4706978E+05  0.2006701E+05 -0.1930813E-01  0.3727708E-02  0.5330623E+05  0.4457182E+04
  0.1300000E+01  0.4179062E+05  0.2880689E+05  0.3644136E-03 -0.7574111E-03  0.5205754E+05  0.5399154E+04
  0.1400000E+01  0.3242862E+05  0.3507204E+05  0.6332227E-02 -0.9510078E-02  0.5052033E+05  0.5201554E+04
  0.1500000E+01  0.2101126E+05  0.3253247E+05 -0.1849031E-01  0.1012162E-01  0.4968143E+05  0.3366198E+04
  0.1600000E+01  0.1335160E+05  0.1858428E+05 -0.8202642E-02 -0.3429558E-03  0.5013151E+05  0.9516623E+03
  0.1700000E+01  0.1303650E+05 -0.5045912E+03 -0.3987621E-02 -0.1665925E-01  0.5165149E+05 -0.1070393E+03
  0.1800000E+01  0.1811686E+05 -0.1593259E+05 -0.2349615E-02 -0.2533601E-02  0.5298913E+05  0.8165911E+03
  0.1900000E+01  0.2485751E+05 -0.2486297E+05 -0.4124390E-02 -0.2544506E-02  0.5366530E+05  0.3069075E+04
  0.2000000E+01  0.3097987E+05 -0.2812338E+05  0.1615047E-02 -0.2361414E-02  0.5363485E+05  0.5720704E+04
  0.2100000E+01  0.3570109E+05 -0.2759002E+05 -0.2129873E-03 -0.1457763E-01  0.5303299E+05  0.7939694E+04
  0.2200000E+01  0.3909184E+05 -0.2492405E+05  0.6719069E-05 -0.3697831E-02  0.5220573E+05  0.9778265E+04
  0.2300000E+01  0.4130270E+05 -0.2113830E+05 -0.7210814E-02 -0.1915500E-02  0.5126275E+05  0.1095966E+05
  0.2400000E+01  0.4252426E+05 -0.1699922E+05  0.2785524E-03  0.1460321E-02  0.5035250E+05  0.1126342E+05
  0.2500000E+01  0.4307193E+05 -0.1289957E+05  0.1826668E-02 -0.1584558E-02  0.4955710E+05  0.1102099E+05
  0.2600000E+01  0.4315617E+05 -0.9149340E+04  0.2900821E-02  0.1868956E-02  0.4886962E+05  0.1043143E+05
  0.2700000E+01  0.4290021E+05 -0.6024325E+04 -0.7908256E-02 -0.3825752E-02  0.4838363E+05  0.9369984E+04
  0.2800000E+01  0.4244884E+05 -0.3569144E+04 -0.7177591E-02 -0.5424209E-04  0.4811271E+05  0.8022589E+04
  0.2900000E+01  0.4192121E+05 -0.1728512E+04  0.1012621E-01 -0.6858028E-02  0.4795210E+05  0.6651696E+04
  0.3000000E+01  0.4138398E+05 -0.4346151E+03 -0.2051671E-02  0.2023378E+00  0.4792111E+05  0.5210720E+04
  0.3100000E+01  0.4089900E+05  0.3359382E+03 -0.3444303E-02  0.2753543E-01  0.4802157E+05  0.3892914E+04
  0.3200000E+01  0.4050158E+05  0.6994274E+03 -0.4592836E-02  0.5051731E-03  0.4819557E+05  0.2796897E+04
