VARIABLES="w (rad/s)"
"abs(F   1   1)" "angle(F   1   1)"
"abs(F   1   2)" "angle(F   1   2)"
"abs(F   1   3)" "angle(F   1   3)"
Zone t="Diffraction force - beta =   0.000 deg",I=   100,F=POINT
  0.1000000E+00  0.2016573E-04 -0.1570798E+01  0.2189533E-02 -0.3141501E+01  0.6432466E-04 -0.1570797E+01
  0.3010101E+00  0.1820933E-03 -0.1570796E+01  0.1987933E-01 -0.3140762E+01  0.5808415E-03 -0.1570796E+01
  0.5020202E+00  0.5058371E-03 -0.1570797E+01  0.5540267E-01 -0.3139289E+01  0.1613520E-02 -0.1570796E+01
  0.7030303E+00  0.9886004E-03 -0.1570796E+01  0.1083944E+00 -0.3137069E+01  0.3153440E-02 -0.1570796E+01
  0.9040404E+00  0.1622522E-02 -0.1570796E+01  0.1800217E+00 -0.3134159E+01  0.5175523E-02 -0.1570796E+01
  0.1105051E+01  0.2408603E-02 -0.1570796E+01  0.2699631E+00 -0.3130551E+01  0.7682962E-02 -0.1570795E+01
  0.1306061E+01  0.3328837E-02 -0.1570796E+01  0.3799542E+00 -0.3126326E+01  0.1061833E-01 -0.1570795E+01
  0.1507071E+01  0.4372151E-02 -0.1570795E+01  0.5097861E+00 -0.3121484E+01  0.1394629E-01 -0.1570796E+01
  0.1708081E+01  0.5561697E-02 -0.1570794E+01  0.6546149E+00 -0.3115847E+01  0.1774071E-01 -0.1570794E+01
  0.1909091E+01  0.6829338E-02 -0.1570794E+01  0.8265399E+00 -0.3109908E+01  0.2178423E-01 -0.1570794E+01
  0.2110101E+01  0.8219007E-02 -0.1570792E+01  0.1009933E+01 -0.3103068E+01  0.2621701E-01 -0.1570792E+01
  0.2311111E+01  0.9650626E-02 -0.1570787E+01  0.1218006E+01 -0.3095864E+01  0.3078358E-01 -0.1570786E+01
  0.2512121E+01  0.1118071E-01 -0.1570781E+01  0.1450634E+01 -0.3088304E+01  0.3566424E-01 -0.1570781E+01
  0.2713131E+01  0.1275744E-01 -0.1570772E+01  0.1692033E+01 -0.3079808E+01  0.4069370E-01 -0.1570769E+01
  0.2914141E+01  0.1429883E-01 -0.1570757E+01  0.1964263E+01 -0.3071239E+01  0.4561041E-01 -0.1570758E+01
  0.3115151E+01  0.1590538E-01 -0.1570740E+01  0.2262553E+01 -0.3062433E+01  0.5073500E-01 -0.1570743E+01
  0.3316161E+01  0.1748188E-01 -0.1570717E+01  0.2564970E+01 -0.3052604E+01  0.5576371E-01 -0.1570716E+01
  0.3517171E+01  0.1900668E-01 -0.1570679E+01  0.2890380E+01 -0.3042482E+01  0.6062753E-01 -0.1570681E+01
  0.3718182E+01  0.2036059E-01 -0.1570634E+01  0.3254434E+01 -0.3032664E+01  0.6494623E-01 -0.1570636E+01
  0.3919192E+01  0.2177427E-01 -0.1570575E+01  0.3635854E+01 -0.3022397E+01  0.6945558E-01 -0.1570575E+01
  0.4120202E+01  0.2303175E-01 -0.1570498E+01  0.4022256E+01 -0.3011277E+01  0.7346668E-01 -0.1570497E+01
  0.4321212E+01  0.2417000E-01 -0.1570402E+01  0.4431710E+01 -0.2999986E+01  0.7709750E-01 -0.1570405E+01
  0.4522222E+01  0.2501282E-01 -0.1570288E+01  0.4867505E+01 -0.2988675E+01  0.7978589E-01 -0.1570290E+01
  0.4723232E+01  0.2544660E-01 -0.1570133E+01  0.5332104E+01 -0.2977464E+01  0.8116961E-01 -0.1570133E+01
  0.4924242E+01  0.2580248E-01 -0.1569953E+01  0.5807109E+01 -0.2965739E+01  0.8230479E-01 -0.1569952E+01
  0.5125252E+01  0.2593401E-01 -0.1569739E+01  0.6296943E+01 -0.2953696E+01  0.8272431E-01 -0.1569739E+01
  0.5326262E+01  0.2566203E-01 -0.1569509E+01  0.6797047E+01 -0.2941217E+01  0.8185676E-01 -0.1569509E+01
  0.5527273E+01  0.2495710E-01 -0.1569203E+01  0.7317672E+01 -0.2928699E+01  0.7960818E-01 -0.1569203E+01
  0.5728283E+01  0.2374321E-01 -0.1568826E+01  0.7866418E+01 -0.2916450E+01  0.7573609E-01 -0.1568823E+01
  0.5929293E+01  0.2199683E-01 -0.1568360E+01  0.8448627E+01 -0.2904696E+01  0.7016557E-01 -0.1568361E+01
  0.6130303E+01  0.1978631E-01 -0.1567860E+01  0.9027265E+01 -0.2892184E+01  0.6311446E-01 -0.1567861E+01
  0.6331313E+01  0.1702839E-01 -0.1567293E+01  0.9614987E+01 -0.2879399E+01  0.5431715E-01 -0.1567298E+01
  0.6532323E+01  0.1362492E-01 -0.1566600E+01  0.1021359E+02 -0.2866441E+01  0.4346082E-01 -0.1566600E+01
  0.6733334E+01  0.9505835E-02 -0.1565892E+01  0.1082957E+02 -0.2853582E+01  0.3032178E-01 -0.1565881E+01
  0.6934343E+01  0.4585627E-02 -0.1565081E+01  0.1145960E+02 -0.2840751E+01  0.1462714E-01 -0.1565123E+01
  0.7135354E+01  0.1176233E-02  0.1577115E+01  0.1210383E+02 -0.2827998E+01  0.3751942E-02  0.1577159E+01
  0.7336363E+01  0.7796818E-02  0.1578678E+01  0.1277579E+02 -0.2815859E+01  0.2487030E-01  0.1578696E+01
  0.7537374E+01  0.1533473E-01  0.1579990E+01  0.1345707E+02 -0.2803714E+01  0.4891456E-01  0.1579989E+01
  0.7738384E+01  0.2394524E-01  0.1581410E+01  0.1414079E+02 -0.2791348E+01  0.7638034E-01  0.1581408E+01
  0.7939394E+01  0.3370924E-01  0.1582931E+01  0.1482880E+02 -0.2778867E+01  0.1075258E+00  0.1582929E+01
  0.8140405E+01  0.4463914E-01  0.1584646E+01  0.1551266E+02 -0.2765996E+01  0.1423901E+00  0.1584641E+01
  0.8341414E+01  0.5686893E-01  0.1586520E+01  0.1620514E+02 -0.2753242E+01  0.1814006E+00  0.1586521E+01
  0.8542424E+01  0.7043987E-01  0.1588586E+01  0.1690405E+02 -0.2740566E+01  0.2246897E+00  0.1588588E+01
  0.8743435E+01  0.8543014E-01  0.1590855E+01  0.1761509E+02 -0.2728238E+01  0.2725052E+00  0.1590852E+01
  0.8944445E+01  0.1018500E+00  0.1593350E+01  0.1833769E+02 -0.2716295E+01  0.3248813E+00  0.1593350E+01
  0.9145455E+01  0.1197147E+00  0.1596104E+01  0.1907521E+02 -0.2704933E+01  0.3818660E+00  0.1596104E+01
  0.9346465E+01  0.1388957E+00  0.1599166E+01  0.1981758E+02 -0.2693806E+01  0.4430497E+00  0.1599168E+01
  0.9547475E+01  0.1600739E+00  0.1602380E+01  0.2054988E+02 -0.2682291E+01  0.5106043E+00  0.1602379E+01
  0.9748485E+01  0.1832734E+00  0.1605776E+01  0.2127781E+02 -0.2670654E+01  0.5846056E+00  0.1605776E+01
  0.9949495E+01  0.2085777E+00  0.1609370E+01  0.2200498E+02 -0.2659084E+01  0.6653212E+00  0.1609370E+01
  0.1015051E+02  0.2359728E+00  0.1613195E+01  0.2272755E+02 -0.2647443E+01  0.7527059E+00  0.1613194E+01
  0.1035151E+02  0.2656712E+00  0.1617228E+01  0.2345146E+02 -0.2636043E+01  0.8474381E+00  0.1617229E+01
  0.1055252E+02  0.2976702E+00  0.1621501E+01  0.2417457E+02 -0.2624833E+01  0.9495093E+00  0.1621501E+01
  0.1075354E+02  0.3316554E+00  0.1626104E+01  0.2488856E+02 -0.2613434E+01  0.1057915E+01  0.1626104E+01
  0.1095455E+02  0.3679601E+00  0.1630984E+01  0.2560282E+02 -0.2602370E+01  0.1173719E+01  0.1630984E+01
  0.1115556E+02  0.4064968E+00  0.1636187E+01  0.2631458E+02 -0.2591562E+01  0.1296643E+01  0.1636186E+01
  0.1135657E+02  0.4472919E+00  0.1641724E+01  0.2702524E+02 -0.2581167E+01  0.1426772E+01  0.1641723E+01
  0.1155758E+02  0.4904190E+00  0.1647600E+01  0.2773694E+02 -0.2571428E+01  0.1564339E+01  0.1647600E+01
  0.1175859E+02  0.5358363E+00  0.1653827E+01  0.2844391E+02 -0.2562103E+01  0.1709211E+01  0.1653827E+01
  0.1195960E+02  0.5846341E+00  0.1660092E+01  0.2913731E+02 -0.2552538E+01  0.1864867E+01  0.1660091E+01
  0.1216061E+02  0.6366259E+00  0.1666476E+01  0.2982033E+02 -0.2543011E+01  0.2030710E+01  0.1666476E+01
  0.1236162E+02  0.6912354E+00  0.1673132E+01  0.3048878E+02 -0.2533242E+01  0.2204906E+01  0.1673132E+01
  0.1256263E+02  0.7488236E+00  0.1679991E+01  0.3114678E+02 -0.2523597E+01  0.2388599E+01  0.1679991E+01
  0.1276364E+02  0.8091618E+00  0.1687114E+01  0.3179156E+02 -0.2513889E+01  0.2581065E+01  0.1687114E+01
  0.1296465E+02  0.8725743E+00  0.1694436E+01  0.3242575E+02 -0.2504463E+01  0.2783338E+01  0.1694436E+01
  0.1316566E+02  0.9390247E+00  0.1701970E+01  0.3304776E+02 -0.2495333E+01  0.2995302E+01  0.1701970E+01
  0.1336667E+02  0.1008279E+01  0.1709772E+01  0.3365513E+02 -0.2486393E+01  0.3216209E+01  0.1709772E+01
  0.1356768E+02  0.1080491E+01  0.1717786E+01  0.3424717E+02 -0.2477716E+01  0.3446553E+01  0.1717786E+01
  0.1376869E+02  0.1156195E+01  0.1725757E+01  0.3482417E+02 -0.2469049E+01  0.3688032E+01  0.1725757E+01
  0.1396970E+02  0.1235108E+01  0.1733781E+01  0.3538472E+02 -0.2460387E+01  0.3939751E+01  0.1733781E+01
  0.1417071E+02  0.1316620E+01  0.1742008E+01  0.3592779E+02 -0.2451518E+01  0.4199756E+01  0.1742008E+01
  0.1437172E+02  0.1400972E+01  0.1750378E+01  0.3645337E+02 -0.2442612E+01  0.4468823E+01  0.1750378E+01
  0.1457273E+02  0.1488411E+01  0.1758824E+01  0.3696016E+02 -0.2433889E+01  0.4747734E+01  0.1758824E+01
  0.1477374E+02  0.1578531E+01  0.1767432E+01  0.3744730E+02 -0.2425105E+01  0.5035200E+01  0.1767432E+01
  0.1497475E+02  0.1671452E+01  0.1776163E+01  0.3791322E+02 -0.2416393E+01  0.5331600E+01  0.1776163E+01
  0.1517576E+02  0.1767402E+01  0.1784908E+01  0.3835581E+02 -0.2407908E+01  0.5637664E+01  0.1784907E+01
  0.1537677E+02  0.1866138E+01  0.1793567E+01  0.3877998E+02 -0.2399308E+01  0.5952607E+01  0.1793568E+01
  0.1557778E+02  0.1967748E+01  0.1802143E+01  0.3918190E+02 -0.2390787E+01  0.6276724E+01  0.1802143E+01
  0.1577879E+02  0.2072009E+01  0.1810673E+01  0.3955998E+02 -0.2382300E+01  0.6609294E+01  0.1810673E+01
  0.1597980E+02  0.2178570E+01  0.1819236E+01  0.3991529E+02 -0.2373674E+01  0.6949205E+01  0.1819236E+01
  0.1618081E+02  0.2287639E+01  0.1827753E+01  0.4024274E+02 -0.2365109E+01  0.7297111E+01  0.1827753E+01
  0.1638182E+02  0.2398229E+01  0.1836468E+01  0.4054900E+02 -0.2356179E+01  0.7649873E+01  0.1836468E+01
  0.1658283E+02  0.2511022E+01  0.1845159E+01  0.4082566E+02 -0.2347234E+01  0.8009659E+01  0.1845159E+01
  0.1678384E+02  0.2625633E+01  0.1853730E+01  0.4108144E+02 -0.2338085E+01  0.8375250E+01  0.1853730E+01
  0.1698485E+02  0.2742034E+01  0.1862193E+01  0.4131370E+02 -0.2328769E+01  0.8746543E+01  0.1862193E+01
  0.1718586E+02  0.2860197E+01  0.1870532E+01  0.4151680E+02 -0.2319370E+01  0.9123460E+01  0.1870532E+01
  0.1738687E+02  0.2979845E+01  0.1878805E+01  0.4169322E+02 -0.2309744E+01  0.9505113E+01  0.1878805E+01
  0.1758788E+02  0.3100767E+01  0.1887046E+01  0.4184075E+02 -0.2299859E+01  0.9890832E+01  0.1887046E+01
  0.1778889E+02  0.3222985E+01  0.1895211E+01  0.4195454E+02 -0.2289743E+01  0.1028068E+02  0.1895211E+01
  0.1798990E+02  0.3346226E+01  0.1903275E+01  0.4204037E+02 -0.2279283E+01  0.1067380E+02  0.1903275E+01
  0.1819091E+02  0.3470416E+01  0.1911076E+01  0.4209646E+02 -0.2268561E+01  0.1106993E+02  0.1911076E+01
  0.1839192E+02  0.3595347E+01  0.1918680E+01  0.4211950E+02 -0.2257502E+01  0.1146845E+02  0.1918679E+01
  0.1859293E+02  0.3720625E+01  0.1926199E+01  0.4211524E+02 -0.2245924E+01  0.1186805E+02  0.1926199E+01
  0.1879394E+02  0.3845914E+01  0.1933711E+01  0.4208242E+02 -0.2233720E+01  0.1226770E+02  0.1933711E+01
  0.1899495E+02  0.3971164E+01  0.1941218E+01  0.4202037E+02 -0.2220827E+01  0.1266722E+02  0.1941218E+01
  0.1919596E+02  0.4096378E+01  0.1948591E+01  0.4192306E+02 -0.2207233E+01  0.1306663E+02  0.1948591E+01
  0.1939697E+02  0.4221211E+01  0.1955754E+01  0.4180172E+02 -0.2192901E+01  0.1346482E+02  0.1955754E+01
  0.1959798E+02  0.4345532E+01  0.1962731E+01  0.4164704E+02 -0.2177716E+01  0.1386138E+02  0.1962732E+01
  0.1979899E+02  0.4469085E+01  0.1969566E+01  0.4145779E+02 -0.2161517E+01  0.1425550E+02  0.1969566E+01
  0.2000000E+02  0.4591669E+01  0.1976333E+01  0.4123703E+02 -0.2144107E+01  0.1464651E+02  0.1976333E+01
