VARIABLES="w (rad/s)"
"abs(F   1   1)" "angle(F   1   1)"
"abs(F   1   2)" "angle(F   1   2)"
"abs(F   1   3)" "angle(F   1   3)"
Zone t="Diffraction force - beta =   0.000 deg",I=   100,F=POINT
  0.1000000E+00  0.3312312E-03 -0.1572011E+01  0.9154428E+02 -0.2193347E-08  0.1056561E-02 -0.1570796E+01
  0.3010101E+00  0.3000487E-02 -0.1570782E+01  0.9152407E+02 -0.1804080E-06  0.9570956E-02 -0.1570790E+01
  0.5020202E+00  0.8344786E-02 -0.1570756E+01  0.9148353E+02 -0.1395156E-05  0.2661822E-01 -0.1570794E+01
  0.7030303E+00  0.1636050E-01 -0.1570775E+01  0.9142297E+02 -0.5363402E-05  0.5218677E-01 -0.1570837E+01
  0.9040404E+00  0.2703853E-01 -0.1570797E+01  0.9134112E+02 -0.1465049E-04  0.8624754E-01 -0.1570797E+01
  0.1105051E+01  0.4037818E-01 -0.1570794E+01  0.9123838E+02 -0.3266989E-04  0.1287984E+00 -0.1570801E+01
  0.1306061E+01  0.5635934E-01 -0.1570798E+01  0.9111293E+02 -0.6366137E-04  0.1797750E+00 -0.1570798E+01
  0.1507071E+01  0.7496833E-01 -0.1570797E+01  0.9096492E+02 -0.1126853E-03  0.2391341E+00 -0.1570797E+01
  0.1708081E+01  0.9622528E-01 -0.1570796E+01  0.9079907E+02 -0.1855917E-03  0.3069395E+00 -0.1570794E+01
  0.1909091E+01  0.1200585E+00 -0.1570795E+01  0.9060329E+02 -0.2889980E-03  0.3829629E+00 -0.1570792E+01
  0.2110101E+01  0.1465080E+00 -0.1570796E+01  0.9039317E+02 -0.4303152E-03  0.4673316E+00 -0.1570797E+01
  0.2311111E+01  0.1754891E+00 -0.1570796E+01  0.9015533E+02 -0.6175822E-03  0.5597756E+00 -0.1570795E+01
  0.2512121E+01  0.2070533E+00 -0.1570796E+01  0.8988998E+02 -0.8595583E-03  0.6604590E+00 -0.1570796E+01
  0.2713131E+01  0.2411430E+00 -0.1570795E+01  0.8961278E+02 -0.1165851E-02  0.7691985E+00 -0.1570796E+01
  0.2914141E+01  0.2776702E+00 -0.1570794E+01  0.8930167E+02 -0.1546210E-02  0.8857124E+00 -0.1570794E+01
  0.3115151E+01  0.3167281E+00 -0.1570793E+01  0.8896138E+02 -0.2011165E-02  0.1010300E+01 -0.1570793E+01
  0.3316161E+01  0.3582141E+00 -0.1570792E+01  0.8861392E+02 -0.2572422E-02  0.1142633E+01 -0.1570794E+01
  0.3517171E+01  0.4020990E+00 -0.1570791E+01  0.8824039E+02 -0.3241140E-02  0.1282616E+01 -0.1570791E+01
  0.3718182E+01  0.4482535E+00 -0.1570789E+01  0.8782507E+02 -0.4028477E-02  0.1429840E+01 -0.1570789E+01
  0.3919192E+01  0.4968992E+00 -0.1570786E+01  0.8738937E+02 -0.4947445E-02  0.1585010E+01 -0.1570786E+01
  0.4120202E+01  0.5478095E+00 -0.1570783E+01  0.8694594E+02 -0.6011597E-02  0.1747404E+01 -0.1570783E+01
  0.4321212E+01  0.6010098E+00 -0.1570780E+01  0.8647664E+02 -0.7232821E-02  0.1917102E+01 -0.1570780E+01
  0.4522222E+01  0.6563116E+00 -0.1570778E+01  0.8597820E+02 -0.8623564E-02  0.2093503E+01 -0.1570777E+01
  0.4723232E+01  0.7135881E+00 -0.1570773E+01  0.8544827E+02 -0.1019614E-01  0.2276204E+01 -0.1570772E+01
  0.4924242E+01  0.7731563E+00 -0.1570768E+01  0.8490565E+02 -0.1196587E-01  0.2466215E+01 -0.1570768E+01
  0.5125252E+01  0.8348542E+00 -0.1570763E+01  0.8434609E+02 -0.1394567E-01  0.2663018E+01 -0.1570763E+01
  0.5326262E+01  0.8984863E+00 -0.1570759E+01  0.8377451E+02 -0.1614962E-01  0.2865993E+01 -0.1570759E+01
  0.5527273E+01  0.9640056E+00 -0.1570755E+01  0.8318064E+02 -0.1858886E-01  0.3074987E+01 -0.1570755E+01
  0.5728283E+01  0.1031318E+01 -0.1570751E+01  0.8255677E+02 -0.2127353E-01  0.3289699E+01 -0.1570751E+01
  0.5929293E+01  0.1100379E+01 -0.1570747E+01  0.8189742E+02 -0.2421295E-01  0.3509988E+01 -0.1570747E+01
  0.6130303E+01  0.1171235E+01 -0.1570746E+01  0.8124135E+02 -0.2743046E-01  0.3736008E+01 -0.1570746E+01
  0.6331313E+01  0.1243782E+01 -0.1570748E+01  0.8057574E+02 -0.3093487E-01  0.3967418E+01 -0.1570748E+01
  0.6532323E+01  0.1317896E+01 -0.1570753E+01  0.7989912E+02 -0.3473777E-01  0.4203826E+01 -0.1570753E+01
  0.6733334E+01  0.1393483E+01 -0.1570763E+01  0.7920480E+02 -0.3884694E-01  0.4444934E+01 -0.1570763E+01
  0.6934343E+01  0.1470428E+01 -0.1570778E+01  0.7849654E+02 -0.4327346E-01  0.4690370E+01 -0.1570778E+01
  0.7135354E+01  0.1548663E+01 -0.1570801E+01  0.7777437E+02 -0.4802644E-01  0.4939925E+01 -0.1570801E+01
  0.7336363E+01  0.1628139E+01 -0.1570834E+01  0.7702351E+02 -0.5310358E-01  0.5193441E+01 -0.1570834E+01
  0.7537374E+01  0.1708767E+01 -0.1570879E+01  0.7626408E+02 -0.5852536E-01  0.5450627E+01 -0.1570879E+01
  0.7738384E+01  0.1790357E+01 -0.1570938E+01  0.7550394E+02 -0.6430714E-01  0.5710885E+01 -0.1570938E+01
  0.7939394E+01  0.1872792E+01 -0.1571014E+01  0.7474146E+02 -0.7045577E-01  0.5973835E+01 -0.1571014E+01
  0.8140405E+01  0.1956022E+01 -0.1571112E+01  0.7398655E+02 -0.7698829E-01  0.6239324E+01 -0.1571112E+01
  0.8341414E+01  0.2039873E+01 -0.1571234E+01  0.7322498E+02 -0.8389871E-01  0.6506790E+01 -0.1571234E+01
  0.8542424E+01  0.2124261E+01 -0.1571386E+01  0.7245938E+02 -0.9119432E-01  0.6775970E+01 -0.1571386E+01
  0.8743435E+01  0.2209066E+01 -0.1571572E+01  0.7168275E+02 -0.9886945E-01  0.7046484E+01 -0.1571572E+01
  0.8944445E+01  0.2294230E+01 -0.1571797E+01  0.7089531E+02 -0.1069241E+00  0.7318137E+01 -0.1571797E+01
  0.9145455E+01  0.2379693E+01 -0.1572069E+01  0.7009217E+02 -0.1153497E+00  0.7590744E+01 -0.1572069E+01
  0.9346465E+01  0.2465529E+01 -0.1572394E+01  0.6928506E+02 -0.1241615E+00  0.7864546E+01 -0.1572394E+01
  0.9547475E+01  0.2551008E+01 -0.1572778E+01  0.6849359E+02 -0.1334037E+00  0.8137213E+01 -0.1572778E+01
  0.9748485E+01  0.2636054E+01 -0.1573228E+01  0.6771068E+02 -0.1430682E+00  0.8408488E+01 -0.1573228E+01
  0.9949495E+01  0.2720524E+01 -0.1573753E+01  0.6693155E+02 -0.1531474E+00  0.8677929E+01 -0.1573753E+01
  0.1015051E+02  0.2804374E+01 -0.1574363E+01  0.6616154E+02 -0.1636534E+00  0.8945396E+01 -0.1574362E+01
  0.1035151E+02  0.2887334E+01 -0.1575067E+01  0.6539174E+02 -0.1745657E+00  0.9210020E+01 -0.1575067E+01
  0.1055252E+02  0.2969346E+01 -0.1575877E+01  0.6462468E+02 -0.1858869E+00  0.9471623E+01 -0.1575877E+01
  0.1075354E+02  0.3050659E+01 -0.1576806E+01  0.6387271E+02 -0.1976504E+00  0.9730998E+01 -0.1576806E+01
  0.1095455E+02  0.3130876E+01 -0.1577865E+01  0.6312055E+02 -0.2098081E+00  0.9986876E+01 -0.1577865E+01
  0.1115556E+02  0.3210024E+01 -0.1579071E+01  0.6237128E+02 -0.2223618E+00  0.1023934E+02 -0.1579071E+01
  0.1135657E+02  0.3288009E+01 -0.1580437E+01  0.6162064E+02 -0.2352878E+00  0.1048809E+02 -0.1580437E+01
  0.1155758E+02  0.3364687E+01 -0.1581980E+01  0.6086162E+02 -0.2485449E+00  0.1073268E+02 -0.1581980E+01
  0.1175859E+02  0.3440041E+01 -0.1583715E+01  0.6010198E+02 -0.2621484E+00  0.1097304E+02 -0.1583715E+01
  0.1195960E+02  0.3512893E+01 -0.1585638E+01  0.5936121E+02 -0.2762012E+00  0.1120544E+02 -0.1585638E+01
  0.1216061E+02  0.3583370E+01 -0.1587769E+01  0.5863144E+02 -0.2906606E+00  0.1143024E+02 -0.1587769E+01
  0.1236162E+02  0.3651983E+01 -0.1590133E+01  0.5792200E+02 -0.3055649E+00  0.1164910E+02 -0.1590133E+01
  0.1256263E+02  0.3718297E+01 -0.1592745E+01  0.5722189E+02 -0.3208550E+00  0.1186063E+02 -0.1592745E+01
  0.1276364E+02  0.3782480E+01 -0.1595626E+01  0.5653732E+02 -0.3365560E+00  0.1206536E+02 -0.1595626E+01
  0.1296465E+02  0.3844139E+01 -0.1598793E+01  0.5585766E+02 -0.3525990E+00  0.1226203E+02 -0.1598793E+01
  0.1316566E+02  0.3903245E+01 -0.1602268E+01  0.5518270E+02 -0.3689622E+00  0.1245058E+02 -0.1602268E+01
  0.1336667E+02  0.3959979E+01 -0.1606075E+01  0.5451590E+02 -0.3856476E+00  0.1263155E+02 -0.1606075E+01
  0.1356768E+02  0.4014122E+01 -0.1610229E+01  0.5385484E+02 -0.4026258E+00  0.1280425E+02 -0.1610229E+01
  0.1376869E+02  0.4065034E+01 -0.1614708E+01  0.5320631E+02 -0.4199847E+00  0.1296666E+02 -0.1614708E+01
  0.1396970E+02  0.4112954E+01 -0.1619543E+01  0.5257102E+02 -0.4377043E+00  0.1311951E+02 -0.1619543E+01
  0.1417071E+02  0.4158452E+01 -0.1624766E+01  0.5195605E+02 -0.4558297E+00  0.1326463E+02 -0.1624766E+01
  0.1437172E+02  0.4201226E+01 -0.1630394E+01  0.5135612E+02 -0.4743070E+00  0.1340108E+02 -0.1630394E+01
  0.1457273E+02  0.4240964E+01 -0.1636445E+01  0.5076388E+02 -0.4930535E+00  0.1352784E+02 -0.1636445E+01
  0.1477374E+02  0.4278048E+01 -0.1642947E+01  0.5018748E+02 -0.5121188E+00  0.1364611E+02 -0.1642947E+01
  0.1497475E+02  0.4312304E+01 -0.1649920E+01  0.4962233E+02 -0.5314375E+00  0.1375539E+02 -0.1649920E+01
  0.1517576E+02  0.4343428E+01 -0.1657365E+01  0.4906263E+02 -0.5509340E+00  0.1385467E+02 -0.1657364E+01
  0.1537677E+02  0.4371552E+01 -0.1665249E+01  0.4851881E+02 -0.5707818E+00  0.1394438E+02 -0.1665249E+01
  0.1557778E+02  0.4396532E+01 -0.1673599E+01  0.4798434E+02 -0.5908625E+00  0.1402406E+02 -0.1673599E+01
  0.1577879E+02  0.4418547E+01 -0.1682438E+01  0.4746050E+02 -0.6111536E+00  0.1409429E+02 -0.1682438E+01
  0.1597980E+02  0.4437950E+01 -0.1691798E+01  0.4695322E+02 -0.6317010E+00  0.1415618E+02 -0.1691798E+01
  0.1618081E+02  0.4454439E+01 -0.1701685E+01  0.4645488E+02 -0.6523615E+00  0.1420879E+02 -0.1701685E+01
  0.1638182E+02  0.4469123E+01 -0.1712160E+01  0.4598079E+02 -0.6733196E+00  0.1425562E+02 -0.1712160E+01
  0.1658283E+02  0.4481162E+01 -0.1723203E+01  0.4551740E+02 -0.6943402E+00  0.1429402E+02 -0.1723203E+01
  0.1678384E+02  0.4490763E+01 -0.1734755E+01  0.4507080E+02 -0.7156181E+00  0.1432465E+02 -0.1734755E+01
  0.1698485E+02  0.4497918E+01 -0.1746843E+01  0.4463929E+02 -0.7370784E+00  0.1434747E+02 -0.1746843E+01
  0.1718586E+02  0.4502586E+01 -0.1759477E+01  0.4421877E+02 -0.7585800E+00  0.1436236E+02 -0.1759477E+01
  0.1738687E+02  0.4505044E+01 -0.1772690E+01  0.4381413E+02 -0.7801645E+00  0.1437018E+02 -0.1772690E+01
  0.1758788E+02  0.4505492E+01 -0.1786504E+01  0.4342560E+02 -0.8017592E+00  0.1437162E+02 -0.1786504E+01
  0.1778889E+02  0.4503827E+01 -0.1800925E+01  0.4305039E+02 -0.8232290E+00  0.1436632E+02 -0.1800925E+01
  0.1798990E+02  0.4500205E+01 -0.1815936E+01  0.4269222E+02 -0.8446718E+00  0.1435476E+02 -0.1815936E+01
  0.1819091E+02  0.4494340E+01 -0.1831451E+01  0.4234612E+02 -0.8660296E+00  0.1433606E+02 -0.1831451E+01
  0.1839192E+02  0.4486436E+01 -0.1847512E+01  0.4201297E+02 -0.8871894E+00  0.1431082E+02 -0.1847512E+01
  0.1859293E+02  0.4476985E+01 -0.1864167E+01  0.4169962E+02 -0.9082163E+00  0.1428070E+02 -0.1864166E+01
  0.1879394E+02  0.4466408E+01 -0.1881451E+01  0.4140836E+02 -0.9290086E+00  0.1424695E+02 -0.1881451E+01
  0.1899495E+02  0.4454741E+01 -0.1899388E+01  0.4113938E+02 -0.9494798E+00  0.1420974E+02 -0.1899388E+01
  0.1919596E+02  0.4441638E+01 -0.1917923E+01  0.4088866E+02 -0.9694309E+00  0.1416794E+02 -0.1917923E+01
  0.1939697E+02  0.4427090E+01 -0.1936981E+01  0.4065834E+02 -0.9890547E+00  0.1412154E+02 -0.1936981E+01
  0.1959798E+02  0.4411175E+01 -0.1956588E+01  0.4044665E+02 -0.1008038E+01  0.1407078E+02 -0.1956588E+01
  0.1979899E+02  0.4394129E+01 -0.1976764E+01  0.4025522E+02 -0.1026228E+01  0.1401639E+02 -0.1976764E+01
  0.2000000E+02  0.4376290E+01 -0.1997560E+01  0.4008803E+02 -0.1043536E+01  0.1395949E+02 -0.1997560E+01
