VARIABLES="w (rad/s)"
"abs(F   1   1)" "angle(F   1   1)"
"abs(F   1   2)" "angle(F   1   2)"
"abs(F   1   3)" "angle(F   1   3)"
Zone t="FKforce - beta =   0.000",I=   100,F=POINT
  0.1000000E+00  0.3110655E-03 -0.1572090E+01  0.9154647E+02  0.0000000E+00  0.9922362E-03 -0.1570796E+01
  0.3010101E+00  0.2818394E-02 -0.1570781E+01  0.9154395E+02 -0.6994282E-11  0.8990115E-02 -0.1570790E+01
  0.5020202E+00  0.7838950E-02 -0.1570753E+01  0.9153893E+02  0.1271758E-11  0.2500470E-01 -0.1570794E+01
  0.7030303E+00  0.1537190E-01 -0.1570774E+01  0.9153136E+02  0.3815588E-11  0.4903333E-01 -0.1570840E+01
  0.9040404E+00  0.2541601E-01 -0.1570797E+01  0.9152113E+02 -0.1780807E-10  0.8107202E-01 -0.1570797E+01
  0.1105051E+01  0.3796958E-01 -0.1570794E+01  0.9150832E+02  0.3562112E-10  0.1211154E+00 -0.1570801E+01
  0.1306061E+01  0.5303050E-01 -0.1570798E+01  0.9149284E+02 -0.2544796E-10  0.1691567E+00 -0.1570798E+01
  0.1507071E+01  0.7059618E-01 -0.1570797E+01  0.9147460E+02 -0.1272652E-09  0.2251878E+00 -0.1570797E+01
  0.1708081E+01  0.9066359E-01 -0.1570796E+01  0.9145347E+02 -0.1018357E-10  0.2891988E+00 -0.1570794E+01
  0.1909091E+01  0.1132292E+00 -0.1570795E+01  0.9142941E+02 -0.1018625E-09  0.3611787E+00 -0.1570792E+01
  0.2110101E+01  0.1382890E+00 -0.1570796E+01  0.9140234E+02  0.3668135E-09  0.4411146E+00 -0.1570797E+01
  0.2311111E+01  0.1658385E+00 -0.1570796E+01  0.9137205E+02 -0.2650087E-09  0.5289920E+00 -0.1570796E+01
  0.2512121E+01  0.1958726E+00 -0.1570797E+01  0.9133853E+02  0.1019638E-09  0.6247948E+00 -0.1570797E+01
  0.2713131E+01  0.2283856E+00 -0.1570796E+01  0.9130152E+02  0.3468175E-09  0.7285048E+00 -0.1570797E+01
  0.2914141E+01  0.2633714E+00 -0.1570796E+01  0.9126096E+02  0.1836909E-09  0.8401020E+00 -0.1570796E+01
  0.3115151E+01  0.3008227E+00 -0.1570796E+01  0.9121667E+02 -0.4084002E-10  0.9595647E+00 -0.1570796E+01
  0.3316161E+01  0.3407322E+00 -0.1570796E+01  0.9116845E+02  0.4903394E-09  0.1086869E+01 -0.1570798E+01
  0.3517171E+01  0.3830923E+00 -0.1570797E+01  0.9111613E+02  0.0000000E+00  0.1221988E+01 -0.1570796E+01
  0.3718182E+01  0.4278929E+00 -0.1570796E+01  0.9105951E+02 -0.2863735E-09  0.1364894E+01 -0.1570796E+01
  0.3919192E+01  0.4751249E+00 -0.1570796E+01  0.9099836E+02 -0.1637520E-09  0.1515554E+01 -0.1570796E+01
  0.4120202E+01  0.5247777E+00 -0.1570796E+01  0.9093252E+02 -0.8193527E-10  0.1673937E+01 -0.1570796E+01
  0.4321212E+01  0.5768398E+00 -0.1570796E+01  0.9086173E+02 -0.2459973E-09  0.1840004E+01 -0.1570796E+01
  0.4522222E+01  0.6312988E+00 -0.1570797E+01  0.9078571E+02  0.6565421E-09  0.2013717E+01 -0.1570796E+01
  0.4723232E+01  0.6881415E+00 -0.1570797E+01  0.9070428E+02  0.9856974E-09  0.2195034E+01 -0.1570796E+01
  0.4924242E+01  0.7473538E+00 -0.1570796E+01  0.9061713E+02  0.3288818E-09  0.2383910E+01 -0.1570796E+01
  0.5125252E+01  0.8089202E+00 -0.1570796E+01  0.9052400E+02  0.3292201E-09  0.2580294E+01 -0.1570796E+01
  0.5326262E+01  0.8728243E+00 -0.1570796E+01  0.9042464E+02 -0.5767682E-09  0.2784136E+01 -0.1570796E+01
  0.5527273E+01  0.9390486E+00 -0.1570796E+01  0.9031873E+02  0.8249209E-09  0.2995379E+01 -0.1570796E+01
  0.5728283E+01  0.1007575E+01 -0.1570796E+01  0.9020598E+02  0.9911424E-09  0.3213963E+01 -0.1570796E+01
  0.5929293E+01  0.1078382E+01 -0.1570796E+01  0.9008608E+02 -0.8270512E-10  0.3439823E+01 -0.1570796E+01
  0.6130303E+01  0.1151449E+01 -0.1570796E+01  0.8995873E+02 -0.9938664E-09  0.3672894E+01 -0.1570796E+01
  0.6331313E+01  0.1226754E+01 -0.1570796E+01  0.8982358E+02 -0.1327149E-08  0.3913101E+01 -0.1570796E+01
  0.6532323E+01  0.1304271E+01 -0.1570796E+01  0.8968032E+02  0.1661587E-09  0.4160366E+01 -0.1570796E+01
  0.6733334E+01  0.1383977E+01 -0.1570796E+01  0.8952856E+02 -0.9986418E-09  0.4414613E+01 -0.1570797E+01
  0.6934343E+01  0.1465842E+01 -0.1570796E+01  0.8936797E+02  0.1834133E-08  0.4675743E+01 -0.1570796E+01
  0.7135354E+01  0.1549839E+01 -0.1570796E+01  0.8919823E+02 -0.1002340E-08  0.4943677E+01 -0.1570796E+01
  0.7336363E+01  0.1635936E+01 -0.1570796E+01  0.8901892E+02  0.1673932E-09  0.5218311E+01 -0.1570796E+01
  0.7537374E+01  0.1724101E+01 -0.1570796E+01  0.8882972E+02  0.5200242E-08  0.5499540E+01 -0.1570796E+01
  0.7738384E+01  0.1814301E+01 -0.1570796E+01  0.8863016E+02  0.2185657E-08  0.5787261E+01 -0.1570796E+01
  0.7939394E+01  0.1906499E+01 -0.1570796E+01  0.8841997E+02 -0.1516744E-08  0.6081353E+01 -0.1570796E+01
  0.8140405E+01  0.2000657E+01 -0.1570796E+01  0.8819865E+02  0.4392700E-08  0.6381700E+01 -0.1570796E+01
  0.8341414E+01  0.2096735E+01 -0.1570796E+01  0.8796584E+02 -0.1863368E-08  0.6688168E+01 -0.1570796E+01
  0.8542424E+01  0.2194689E+01 -0.1570796E+01  0.8772118E+02 -0.3567262E-08  0.7000623E+01 -0.1570796E+01
  0.8743435E+01  0.2294478E+01 -0.1570796E+01  0.8746420E+02 -0.4088848E-08  0.7318932E+01 -0.1570796E+01
  0.8944445E+01  0.2396053E+01 -0.1570796E+01  0.8719453E+02 -0.1025374E-08  0.7642932E+01 -0.1570796E+01
  0.9145455E+01  0.2499367E+01 -0.1570796E+01  0.8691175E+02  0.3429033E-09  0.7972482E+01 -0.1570796E+01
  0.9346465E+01  0.2604366E+01 -0.1570796E+01  0.8661541E+02 -0.3440764E-09  0.8307407E+01 -0.1570796E+01
  0.9547475E+01  0.2710997E+01 -0.1570796E+01  0.8630515E+02 -0.1035940E-08  0.8647546E+01 -0.1570796E+01
  0.9748485E+01  0.2819207E+01 -0.1570796E+01  0.8598045E+02  0.4159409E-08  0.8992711E+01 -0.1570796E+01
  0.9949495E+01  0.2928935E+01 -0.1570796E+01  0.8564092E+02  0.2435941E-07  0.9342717E+01 -0.1570796E+01
  0.1015051E+02  0.3040117E+01 -0.1570796E+01  0.8528624E+02 -0.4193266E-08  0.9697369E+01 -0.1570796E+01
  0.1035151E+02  0.3152693E+01 -0.1570796E+01  0.8491580E+02  0.3509632E-09  0.1005646E+02 -0.1570796E+01
  0.1055252E+02  0.3266595E+01 -0.1570796E+01  0.8452934E+02 -0.4583382E-08  0.1041979E+02 -0.1570796E+01
  0.1075354E+02  0.3381752E+01 -0.1570796E+01  0.8412631E+02 -0.1062771E-08  0.1078712E+02 -0.1570796E+01
  0.1095455E+02  0.3498092E+01 -0.1570796E+01  0.8370636E+02  0.1068102E-08  0.1115822E+02 -0.1570796E+01
  0.1115556E+02  0.3615542E+01 -0.1570796E+01  0.8326906E+02  0.7158079E-08  0.1153286E+02 -0.1570796E+01
  0.1135657E+02  0.3734023E+01 -0.1570796E+01  0.8281398E+02  0.2519095E-08  0.1191079E+02 -0.1570796E+01
  0.1155758E+02  0.3853450E+01 -0.1570796E+01  0.8234072E+02 -0.6514903E-08  0.1229174E+02 -0.1570796E+01
  0.1175859E+02  0.3973744E+01 -0.1570796E+01  0.8184885E+02  0.7282282E-09  0.1267545E+02 -0.1570796E+01
  0.1195960E+02  0.4094811E+01 -0.1570796E+01  0.8133801E+02  0.3664009E-08  0.1306164E+02 -0.1570796E+01
  0.1216061E+02  0.4216568E+01 -0.1570796E+01  0.8080777E+02 -0.5163272E-08  0.1345002E+02 -0.1570796E+01
  0.1236162E+02  0.4338919E+01 -0.1570796E+01  0.8025773E+02 -0.7426655E-09  0.1384029E+02 -0.1570796E+01
  0.1256263E+02  0.4461765E+01 -0.1570796E+01  0.7968755E+02 -0.3739897E-08  0.1423215E+02 -0.1570796E+01
  0.1276364E+02  0.4585008E+01 -0.1570796E+01  0.7909684E+02  0.1507131E-08  0.1462526E+02 -0.1570796E+01
  0.1296465E+02  0.4708546E+01 -0.1570796E+01  0.7848524E+02 -0.4556625E-08  0.1501932E+02 -0.1570796E+01
  0.1316566E+02  0.4832270E+01 -0.1570796E+01  0.7785243E+02 -0.2526515E-07  0.1541398E+02 -0.1570796E+01
  0.1336667E+02  0.4956073E+01 -0.1570796E+01  0.7719802E+02  0.1312571E-07  0.1580889E+02 -0.1570796E+01
  0.1356768E+02  0.5079841E+01 -0.1570796E+01  0.7652175E+02  0.1635741E-07  0.1620368E+02 -0.1570796E+01
  0.1376869E+02  0.5203457E+01 -0.1570796E+01  0.7582327E+02 -0.2829959E-07  0.1659800E+02 -0.1570796E+01
  0.1396970E+02  0.5326808E+01 -0.1570796E+01  0.7510234E+02 -0.2380937E-08  0.1699146E+02 -0.1570796E+01
  0.1417071E+02  0.5449767E+01 -0.1570796E+01  0.7435860E+02 -0.2885701E-07  0.1738367E+02 -0.1570796E+01
  0.1437172E+02  0.5572209E+01 -0.1570796E+01  0.7359188E+02  0.8099351E-09  0.1777424E+02 -0.1570796E+01
  0.1457273E+02  0.5694006E+01 -0.1570796E+01  0.7280190E+02 -0.1637447E-08  0.1816275E+02 -0.1570796E+01
  0.1477374E+02  0.5815029E+01 -0.1570796E+01  0.7198849E+02  0.3725886E-07  0.1854878E+02 -0.1570796E+01
  0.1497475E+02  0.5935141E+01 -0.1570796E+01  0.7115140E+02  0.2513147E-07  0.1893192E+02 -0.1570796E+01
  0.1517576E+02  0.6054207E+01 -0.1570796E+01  0.7029045E+02  0.4239882E-08  0.1931172E+02 -0.1570796E+01
  0.1537677E+02  0.6172091E+01 -0.1570796E+01  0.6940553E+02 -0.6011517E-08  0.1968774E+02 -0.1570796E+01
  0.1557778E+02  0.6288644E+01 -0.1570796E+01  0.6849653E+02  0.8701849E-09  0.2005952E+02 -0.1570796E+01
  0.1577879E+02  0.6403721E+01 -0.1570796E+01  0.6756328E+02 -0.1764409E-07  0.2042660E+02 -0.1570796E+01
  0.1597980E+02  0.6517183E+01 -0.1570796E+01  0.6660577E+02  0.1879263E-07  0.2078852E+02 -0.1570796E+01
  0.1618081E+02  0.6628868E+01 -0.1570796E+01  0.6562394E+02  0.4541380E-08  0.2114478E+02 -0.1570796E+01
  0.1638182E+02  0.6738633E+01 -0.1570796E+01  0.6461778E+02  0.5442270E-07  0.2149490E+02 -0.1570796E+01
  0.1658283E+02  0.6846323E+01 -0.1570796E+01  0.6358731E+02  0.1687260E-07  0.2183841E+02 -0.1570796E+01
  0.1678384E+02  0.6951776E+01 -0.1570796E+01  0.6253256E+02  0.1715720E-07  0.2217479E+02 -0.1570796E+01
  0.1698485E+02  0.7054837E+01 -0.1570796E+01  0.6145364E+02  0.0000000E+00  0.2250353E+02 -0.1570796E+01
  0.1718586E+02  0.7155350E+01 -0.1570796E+01  0.6035068E+02 -0.1086402E-07  0.2282415E+02 -0.1570796E+01
  0.1738687E+02  0.7253151E+01 -0.1570796E+01  0.5922380E+02 -0.4025722E-08  0.2313610E+02 -0.1570796E+01
  0.1758788E+02  0.7348073E+01 -0.1570796E+01  0.5807315E+02 -0.1847469E-07  0.2343889E+02 -0.1570796E+01
  0.1778889E+02  0.7439959E+01 -0.1570796E+01  0.5689904E+02 -0.1152306E-07  0.2373199E+02 -0.1570796E+01
  0.1798990E+02  0.7528639E+01 -0.1570796E+01  0.5570170E+02 -0.2889186E-07  0.2401486E+02 -0.1570796E+01
  0.1819091E+02  0.7613955E+01 -0.1570796E+01  0.5448143E+02  0.2188072E-08  0.2428700E+02 -0.1570796E+01
  0.1839192E+02  0.7695735E+01 -0.1570796E+01  0.5323859E+02  0.2351110E-07  0.2454786E+02 -0.1570796E+01
  0.1859293E+02  0.7773814E+01 -0.1570796E+01  0.5197354E+02  0.5734134E-08  0.2479693E+02 -0.1570796E+01
  0.1879394E+02  0.7848032E+01 -0.1570796E+01  0.5068675E+02 -0.1175941E-08  0.2503366E+02 -0.1570796E+01
  0.1899495E+02  0.7918221E+01 -0.1570796E+01  0.4937867E+02 -0.7242558E-08  0.2525755E+02 -0.1570796E+01
  0.1919596E+02  0.7984215E+01 -0.1570796E+01  0.4804981E+02 -0.6202380E-08  0.2546806E+02 -0.1570796E+01
  0.1939697E+02  0.8045853E+01 -0.1570796E+01  0.4670076E+02  0.0000000E+00  0.2566467E+02 -0.1570796E+01
  0.1959798E+02  0.8102976E+01 -0.1570796E+01  0.4533211E+02 -0.9203906E-08  0.2584688E+02 -0.1570796E+01
  0.1979899E+02  0.8155416E+01 -0.1570796E+01  0.4394450E+02 -0.9494532E-08  0.2601415E+02 -0.1570796E+01
  0.2000000E+02  0.8203023E+01 -0.1570796E+01  0.4253864E+02  0.2802376E-08  0.2616601E+02 -0.1570796E+01
