 VARIABLES="Time (s)"
"AddedMass    1" "IRF    1"
"AddedMass    2" "IRF    2"
"AddedMass    3" "IRF    3"
Zone t="DoF    1",I=   800,F=POINT
  0.0000000E+00  0.1997639E-02  0.5338388E-01 -0.4251007E-09 -0.5221369E-07  0.6372073E-02  0.1702840E+00
  0.1000000E-01  0.1997639E-02  0.5261918E-01 -0.4251007E-09 -0.5187666E-07  0.6372073E-02  0.1678447E+00
  0.2000000E-01  0.1997639E-02  0.5034858E-01 -0.4251007E-09 -0.5087180E-07  0.6372073E-02  0.1606020E+00
  0.3000000E-01  0.1997639E-02  0.4664192E-01 -0.4251007E-09 -0.4921769E-07  0.6372073E-02  0.1487785E+00
  0.4000000E-01  0.1997639E-02  0.4161310E-01 -0.4251007E-09 -0.4694490E-07  0.6372073E-02  0.1327375E+00
  0.5000000E-01  0.1997639E-02  0.3541638E-01 -0.4251007E-09 -0.4409534E-07  0.6372073E-02  0.1129712E+00
  0.6000000E-01  0.1997639E-02  0.2824143E-01 -0.4251007E-09 -0.4072129E-07  0.6372073E-02  0.9008452E-01
  0.7000000E-01  0.1997639E-02  0.2030724E-01 -0.4251007E-09 -0.3688441E-07  0.6372073E-02  0.6477605E-01
  0.8000000E-01  0.1997639E-02  0.1185508E-01 -0.4251007E-09 -0.3265444E-07  0.6372073E-02  0.3781534E-01
  0.9000000E-01  0.1997639E-02  0.3140780E-02 -0.4251007E-09 -0.2810764E-07  0.6372073E-02  0.1001846E-01
  0.9999999E-01  0.1997639E-02 -0.5573422E-02 -0.4251007E-09 -0.2332528E-07  0.6372073E-02 -0.1777811E-01
  0.1100000E+00  0.1997639E-02 -0.1402722E-01 -0.4251007E-09 -0.1839187E-07  0.6372073E-02 -0.4474404E-01
  0.1200000E+00  0.1997639E-02 -0.2197043E-01 -0.4251007E-09 -0.1339347E-07  0.6372073E-02 -0.7008131E-01
  0.1300000E+00  0.1997639E-02 -0.2917088E-01 -0.4251007E-09 -0.8415754E-08  0.6372073E-02 -0.9304929E-01
  0.1400000E+00  0.1997639E-02 -0.3542157E-01 -0.4251007E-09 -0.3542367E-08  0.6372073E-02 -0.1129877E+00
  0.1500000E+00  0.1997639E-02 -0.4054703E-01 -0.4251007E-09  0.1146911E-08  0.6372073E-02 -0.1293370E+00
  0.1600000E+00  0.1997639E-02 -0.4440865E-01 -0.4251007E-09  0.5577768E-08  0.6372073E-02 -0.1416548E+00
  0.1700000E+00  0.1997639E-02 -0.4690863E-01 -0.4251007E-09  0.9682893E-08  0.6372073E-02 -0.1496292E+00
  0.1800000E+00  0.1997639E-02 -0.4799270E-01 -0.4251007E-09  0.1340332E-07  0.6372073E-02 -0.1530872E+00
  0.1900000E+00  0.1997639E-02 -0.4765136E-01 -0.4251007E-09  0.1668958E-07  0.6372073E-02 -0.1519984E+00
  0.2000000E+00  0.1997639E-02 -0.4591966E-01 -0.4251007E-09  0.1950264E-07  0.6372073E-02 -0.1464746E+00
  0.2100000E+00  0.1997639E-02 -0.4287551E-01 -0.4251007E-09  0.2181459E-07  0.6372073E-02 -0.1367643E+00
  0.2200000E+00  0.1997639E-02 -0.3863664E-01 -0.4251007E-09  0.2360907E-07  0.6372073E-02 -0.1232432E+00
  0.2300000E+00  0.1997639E-02 -0.3335625E-01 -0.4251007E-09  0.2488138E-07  0.6372073E-02 -0.1063998E+00
  0.2400000E+00  0.1997639E-02 -0.2721765E-01 -0.4251007E-09  0.2563841E-07  0.6372073E-02 -0.8681888E-01
  0.2500000E+00  0.1997639E-02 -0.2042788E-01 -0.4251007E-09  0.2589816E-07  0.6372073E-02 -0.6516087E-01
  0.2600000E+00  0.1997639E-02 -0.1321069E-01 -0.4251007E-09  0.2568915E-07  0.6372073E-02 -0.4213948E-01
  0.2700000E+00  0.1997639E-02 -0.5799071E-02 -0.4251007E-09  0.2504936E-07  0.6372073E-02 -0.1849789E-01
  0.2800000E+00  0.1997639E-02  0.1572494E-02 -0.4251007E-09  0.2402525E-07  0.6372073E-02  0.5015947E-02
  0.2900000E+00  0.1997639E-02  0.8675514E-02 -0.4251007E-09  0.2267027E-07  0.6372073E-02  0.2767316E-01
  0.3000000E+00  0.1997639E-02  0.1529493E-01 -0.4251007E-09  0.2104339E-07  0.6372073E-02  0.4878777E-01
  0.3100000E+00  0.1997639E-02  0.2123583E-01 -0.4251007E-09  0.1920750E-07  0.6372073E-02  0.6773806E-01
  0.3200000E+00  0.1997639E-02  0.2632933E-01 -0.4251007E-09  0.1722764E-07  0.6372073E-02  0.8398531E-01
  0.3300000E+00  0.1997639E-02  0.3043773E-01 -0.4251007E-09  0.1516928E-07  0.6372073E-02  0.9709032E-01
  0.3400000E+00  0.1997639E-02  0.3345834E-01 -0.4251007E-09  0.1309655E-07  0.6372073E-02  0.1067255E+00
  0.3500000E+00  0.1997639E-02  0.3532611E-01 -0.4251007E-09  0.1107062E-07  0.6372073E-02  0.1126832E+00
  0.3600000E+00  0.1997639E-02  0.3601504E-01 -0.4251007E-09  0.9148095E-08  0.6372073E-02  0.1148808E+00
  0.3700000E+00  0.1997639E-02  0.3553820E-01 -0.4251007E-09  0.7379565E-08  0.6372073E-02  0.1133598E+00
  0.3800000E+00  0.1997639E-02  0.3394645E-01 -0.4251007E-09  0.5808485E-08  0.6372073E-02  0.1082824E+00
  0.3900000E+00  0.1997639E-02  0.3132590E-01 -0.4251007E-09  0.4470037E-08  0.6372073E-02  0.9992339E-01
  0.4000000E+00  0.1997639E-02  0.2779429E-01 -0.4251007E-09  0.3390447E-08  0.6372073E-02  0.8865825E-01
  0.4100000E+00  0.1997639E-02  0.2349627E-01 -0.4251007E-09  0.2586547E-08  0.6372073E-02  0.7494843E-01
  0.4200000E+00  0.1997639E-02  0.1859804E-01 -0.4251007E-09  0.2065486E-08  0.6372073E-02  0.5932404E-01
  0.4300000E+00  0.1997639E-02  0.1328113E-01 -0.4251007E-09  0.1824886E-08  0.6372073E-02  0.4236415E-01
  0.4400000E+00  0.1997639E-02  0.7735977E-02 -0.4251007E-09  0.1853209E-08  0.6372073E-02  0.2467623E-01
  0.4500000E+00  0.1997639E-02  0.2155342E-02 -0.4251007E-09  0.2130411E-08  0.6372073E-02  0.6875125E-02
  0.4600000E+00  0.1997639E-02 -0.3272401E-02 -0.4251007E-09  0.2628805E-08  0.6372073E-02 -0.1043832E-01
  0.4700000E+00  0.1997639E-02 -0.8369518E-02 -0.4251007E-09  0.3314205E-08  0.6372073E-02 -0.2669711E-01
  0.4800000E+00  0.1997639E-02 -0.1297465E-01 -0.4251007E-09  0.4147238E-08  0.6372073E-02 -0.4138655E-01
  0.4900000E+00  0.1997639E-02 -0.1694801E-01 -0.4251007E-09  0.5084769E-08  0.6372073E-02 -0.5406079E-01
  0.5000000E+00  0.1997639E-02 -0.2017559E-01 -0.4251007E-09  0.6081402E-08  0.6372073E-02 -0.6435613E-01
  0.5100000E+00  0.1997639E-02 -0.2257239E-01 -0.4251007E-09  0.7091115E-08  0.6372073E-02 -0.7200144E-01
  0.5200000E+00  0.1997639E-02 -0.2408466E-01 -0.4251007E-09  0.8068775E-08  0.6372073E-02 -0.7682528E-01
  0.5300000E+00  0.1997639E-02 -0.2469091E-01 -0.4251007E-09  0.8971662E-08  0.6372073E-02 -0.7875911E-01
  0.5400000E+00  0.1997639E-02 -0.2440181E-01 -0.4251007E-09  0.9760884E-08  0.6372073E-02 -0.7783692E-01
  0.5500000E+00  0.1997639E-02 -0.2325895E-01 -0.4251007E-09  0.1040260E-07  0.6372073E-02 -0.7419142E-01
  0.5600000E+00  0.1997639E-02 -0.2133262E-01 -0.4251007E-09  0.1086907E-07  0.6372073E-02 -0.6804682E-01
  0.5700000E+00  0.1997639E-02 -0.1871851E-01 -0.4251007E-09  0.1113950E-07  0.6372073E-02 -0.5970832E-01
  0.5800000E+00  0.1997639E-02 -0.1553367E-01 -0.4251007E-09  0.1120059E-07  0.6372073E-02 -0.4954933E-01
  0.5900000E+00  0.1997639E-02 -0.1191185E-01 -0.4251007E-09  0.1104682E-07  0.6372073E-02 -0.3799645E-01
  0.6000000E+00  0.1997639E-02 -0.7998244E-02 -0.4251007E-09  0.1068051E-07  0.6372073E-02 -0.2551281E-01
  0.6100000E+00  0.1997639E-02 -0.3944023E-02 -0.4251007E-09  0.1011150E-07  0.6372073E-02 -0.1258066E-01
  0.6200000E+00  0.1997639E-02  0.9910578E-04 -0.4251007E-09  0.9356710E-08  0.6372073E-02  0.3161340E-03
  0.6300000E+00  0.1997639E-02  0.3984519E-02 -0.4251007E-09  0.8439290E-08  0.6372073E-02  0.1270982E-01
  0.6400000E+00  0.1997639E-02  0.7575673E-02 -0.4251007E-09  0.7387671E-08  0.6372073E-02  0.2416489E-01
  0.6500000E+00  0.1997639E-02  0.1075081E-01 -0.4251007E-09  0.6234411E-08  0.6372073E-02  0.3429293E-01
  0.6600000E+00  0.1997639E-02  0.1340691E-01 -0.4251007E-09  0.5014876E-08  0.6372073E-02  0.4276536E-01
  0.6700000E+00  0.1997639E-02  0.1546295E-01 -0.4251007E-09  0.3765894E-08  0.6372073E-02  0.4932375E-01
  0.6800000E+00  0.1997639E-02  0.1686230E-01 -0.4251007E-09  0.2524283E-08  0.6372073E-02  0.5378737E-01
  0.6900000E+00  0.1997639E-02  0.1757400E-01 -0.4251007E-09  0.1325554E-08  0.6372073E-02  0.5605755E-01
  0.7000000E+00  0.1997639E-02  0.1759338E-01 -0.4251007E-09  0.2024529E-09  0.6372073E-02  0.5611940E-01
  0.7100000E+00  0.1997639E-02  0.1694145E-01 -0.4251007E-09 -0.8161405E-09  0.6372073E-02  0.5403985E-01
  0.7200000E+00  0.1997639E-02  0.1566344E-01 -0.4251007E-09 -0.1706303E-08  0.6372073E-02  0.4996328E-01
  0.7300000E+00  0.1997639E-02  0.1382658E-01 -0.4251007E-09 -0.2449900E-08  0.6372073E-02  0.4410404E-01
  0.7400000E+00  0.1997639E-02  0.1151695E-01 -0.4251007E-09 -0.3035170E-08  0.6372073E-02  0.3673679E-01
  0.7500000E+00  0.1997639E-02  0.8835957E-02 -0.4251007E-09 -0.3457095E-08  0.6372073E-02  0.2818495E-01
  0.7600000E+00  0.1997639E-02  0.5896043E-02 -0.4251007E-09 -0.3717401E-08  0.6372073E-02  0.1880721E-01
  0.7700000E+00  0.1997639E-02  0.2816323E-02 -0.4251007E-09 -0.3824512E-08  0.6372073E-02  0.8983516E-02
  0.7800000E+00  0.1997639E-02 -0.2820463E-03 -0.4251007E-09 -0.3792889E-08  0.6372073E-02 -0.8996640E-03
  0.7900000E+00  0.1997639E-02 -0.3280427E-02 -0.4251007E-09 -0.3642510E-08  0.6372073E-02 -0.1046391E-01
  0.8000000E+00  0.1997639E-02 -0.6067081E-02 -0.4251007E-09 -0.3397757E-08  0.6372073E-02 -0.1935278E-01
  0.8100000E+00  0.1997639E-02 -0.8541166E-02 -0.4251007E-09 -0.3086380E-08  0.6372073E-02 -0.2724462E-01
  0.8200000E+00  0.1997639E-02 -0.1061623E-01 -0.4251007E-09 -0.2738315E-08  0.6372073E-02 -0.3386367E-01
  0.8300000E+00  0.1997639E-02 -0.1222319E-01 -0.4251007E-09 -0.2384213E-08  0.6372073E-02 -0.3898954E-01
  0.8400000E+00  0.1997639E-02 -0.1331243E-01 -0.4251007E-09 -0.2054134E-08  0.6372073E-02 -0.4246400E-01
  0.8500000E+00  0.1997639E-02 -0.1385527E-01 -0.4251007E-09 -0.1776137E-08  0.6372073E-02 -0.4419556E-01
  0.8600000E+00  0.1997639E-02 -0.1384456E-01 -0.4251007E-09 -0.1575047E-08  0.6372073E-02 -0.4416140E-01
  0.8700000E+00  0.1997639E-02 -0.1329439E-01 -0.4251007E-09 -0.1471239E-08  0.6372073E-02 -0.4240645E-01
  0.8800000E+00  0.1997639E-02 -0.1223915E-01 -0.4251007E-09 -0.1479707E-08  0.6372073E-02 -0.3904045E-01
  0.8900000E+00  0.1997639E-02 -0.1073174E-01 -0.4251007E-09 -0.1609212E-08  0.6372073E-02 -0.3423209E-01
  0.9000000E+00  0.1997639E-02 -0.8841102E-02 -0.4251007E-09 -0.1861886E-08  0.6372073E-02 -0.2820135E-01
  0.9100000E+00  0.1997639E-02 -0.6649314E-02 -0.4251007E-09 -0.2232924E-08  0.6372073E-02 -0.2120999E-01
  0.9200000E+00  0.1997639E-02 -0.4248139E-02 -0.4251007E-09 -0.2710584E-08  0.6372073E-02 -0.1355072E-01
  0.9300000E+00  0.1997639E-02 -0.1735333E-02 -0.4251007E-09 -0.3276642E-08  0.6372073E-02 -0.5535372E-02
  0.9400000E+00  0.1997639E-02  0.7892254E-03 -0.4251007E-09 -0.3906976E-08  0.6372073E-02  0.2517468E-02
  0.9500000E+00  0.1997639E-02  0.3227381E-02 -0.4251007E-09 -0.4572466E-08  0.6372073E-02  0.1029470E-01
  0.9600000E+00  0.1997639E-02  0.5486435E-02 -0.4251007E-09 -0.5240092E-08  0.6372073E-02  0.1750064E-01
  0.9700000E+00  0.1997639E-02  0.7482550E-02 -0.4251007E-09 -0.5874328E-08  0.6372073E-02  0.2386785E-01
  0.9800000E+00  0.1997639E-02  0.9143801E-02 -0.4251007E-09 -0.6438563E-08  0.6372073E-02  0.2916689E-01
  0.9899999E+00  0.1997639E-02  0.1041267E-01 -0.4251007E-09 -0.6896678E-08  0.6372073E-02  0.3321434E-01
  0.1000000E+01  0.1997639E-02  0.1124799E-01 -0.4251007E-09 -0.7214636E-08  0.6372073E-02  0.3587885E-01
  0.1010000E+01  0.1997639E-02  0.1162616E-01 -0.4251007E-09 -0.7362014E-08  0.6372073E-02  0.3708513E-01
  0.1020000E+01  0.1997639E-02  0.1154173E-01 -0.4251007E-09 -0.7313529E-08  0.6372073E-02  0.3681583E-01
  0.1030000E+01  0.1997639E-02  0.1100728E-01 -0.4251007E-09 -0.7050220E-08  0.6372073E-02  0.3511102E-01
  0.1040000E+01  0.1997639E-02  0.1005249E-01 -0.4251007E-09 -0.6560694E-08  0.6372073E-02  0.3206544E-01
  0.1050000E+01  0.1997639E-02  0.8722816E-02 -0.4251007E-09 -0.5841736E-08  0.6372073E-02  0.2782405E-01
  0.1060000E+01  0.1997639E-02  0.7077291E-02 -0.4251007E-09 -0.4899144E-08  0.6372073E-02  0.2257516E-01
  0.1070000E+01  0.1997639E-02  0.5186109E-02 -0.4251007E-09 -0.3747588E-08  0.6372073E-02  0.1654265E-01
  0.1080000E+01  0.1997639E-02  0.3127640E-02 -0.4251007E-09 -0.2410749E-08  0.6372073E-02  0.9976554E-02
  0.1090000E+01  0.1997639E-02  0.9852330E-03 -0.4251007E-09 -0.9205684E-09  0.6372073E-02  0.3142699E-02
  0.1100000E+01  0.1997639E-02 -0.1155937E-02 -0.4251007E-09  0.6833251E-09  0.6372073E-02 -0.3687215E-02
  0.1110000E+01  0.1997639E-02 -0.3212392E-02 -0.4251007E-09  0.2355005E-08  0.6372073E-02 -0.1024689E-01
  0.1120000E+01  0.1997639E-02 -0.5105458E-02 -0.4251007E-09  0.4043598E-08  0.6372073E-02 -0.1628540E-01
  0.1130000E+01  0.1997639E-02 -0.6764203E-02 -0.4251007E-09  0.5694957E-08  0.6372073E-02 -0.2157646E-01
  0.1140000E+01  0.1997639E-02 -0.8128076E-02 -0.4251007E-09  0.7253532E-08  0.6372073E-02 -0.2592694E-01
  0.1150000E+01  0.1997639E-02 -0.9149060E-02 -0.4251007E-09  0.8664403E-08  0.6372073E-02 -0.2918368E-01
  0.1160000E+01  0.1997639E-02 -0.9793325E-02 -0.4251007E-09  0.9875172E-08  0.6372073E-02 -0.3123876E-01
  0.1170000E+01  0.1997639E-02 -0.1004227E-01 -0.4251007E-09  0.1083813E-07  0.6372073E-02 -0.3203283E-01
  0.1180000E+01  0.1997639E-02 -0.9892992E-02 -0.4251007E-09  0.1151203E-07  0.6372073E-02 -0.3155667E-01
  0.1190000E+01  0.1997639E-02 -0.9358183E-02 -0.4251007E-09  0.1186387E-07  0.6372073E-02 -0.2985074E-01
  0.1200000E+01  0.1997639E-02 -0.8465294E-02 -0.4251007E-09  0.1187027E-07  0.6372073E-02 -0.2700260E-01
  0.1210000E+01  0.1997639E-02 -0.7255276E-02 -0.4251007E-09  0.1151881E-07  0.6372073E-02 -0.2314289E-01
  0.1220000E+01  0.1997639E-02 -0.5780739E-02 -0.4251007E-09  0.1080870E-07  0.6372073E-02 -0.1843941E-01
  0.1230000E+01  0.1997639E-02 -0.4103783E-02 -0.4251007E-09  0.9751259E-08  0.6372073E-02 -0.1309025E-01
  0.1240000E+01  0.1997639E-02 -0.2293370E-02 -0.4251007E-09  0.8369931E-08  0.6372073E-02 -0.7315392E-02
  0.1250000E+01  0.1997639E-02 -0.4225000E-03 -0.4251007E-09  0.6699796E-08  0.6372073E-02 -0.1347690E-02
  0.1260000E+01  0.1997639E-02  0.1434621E-02 -0.4251007E-09  0.4786834E-08  0.6372073E-02  0.4576149E-02
  0.1270000E+01  0.1997639E-02  0.3205472E-02 -0.4251007E-09  0.2686534E-08  0.6372073E-02  0.1022482E-01
  0.1280000E+01  0.1997639E-02  0.4822107E-02 -0.4251007E-09  0.4623534E-09  0.6372073E-02  0.1538157E-01
  0.1290000E+01  0.1997639E-02  0.6223643E-02 -0.4251007E-09 -0.1816265E-08  0.6372073E-02  0.1985218E-01
  0.1300000E+01  0.1997639E-02  0.7358554E-02 -0.4251007E-09 -0.4076036E-08  0.6372073E-02  0.2347233E-01
  0.1310000E+01  0.1997639E-02  0.8186528E-02 -0.4251007E-09 -0.6242325E-08  0.6372073E-02  0.2611339E-01
  0.1320000E+01  0.1997639E-02  0.8679858E-02 -0.4251007E-09 -0.8241666E-08  0.6372073E-02  0.2768702E-01
  0.1330000E+01  0.1997639E-02  0.8824366E-02 -0.4251007E-09 -0.1000413E-07  0.6372073E-02  0.2814797E-01
  0.1340000E+01  0.1997639E-02  0.8619696E-02 -0.4251007E-09 -0.1146598E-07  0.6372073E-02  0.2749511E-01
  0.1350000E+01  0.1997639E-02  0.8079165E-02 -0.4251007E-09 -0.1257183E-07  0.6372073E-02  0.2577093E-01
  0.1360000E+01  0.1997639E-02  0.7229029E-02 -0.4251007E-09 -0.1327684E-07  0.6372073E-02  0.2305916E-01
  0.1370000E+01  0.1997639E-02  0.6107251E-02 -0.4251007E-09 -0.1354840E-07  0.6372073E-02  0.1948091E-01
  0.1380000E+01  0.1997639E-02  0.4761893E-02 -0.4251007E-09 -0.1336755E-07  0.6372073E-02  0.1518949E-01
  0.1390000E+01  0.1997639E-02  0.3249038E-02 -0.4251007E-09 -0.1272994E-07  0.6372073E-02  0.1036378E-01
  0.1400000E+01  0.1997639E-02  0.1630491E-02 -0.4251007E-09 -0.1164630E-07  0.6372073E-02  0.5200941E-02
  0.1410000E+01  0.1997639E-02 -0.2865700E-04 -0.4251007E-09 -0.1014239E-07  0.6372073E-02 -0.9141662E-04
  0.1420000E+01  0.1997639E-02 -0.1662671E-02 -0.4251007E-09 -0.8258564E-08  0.6372073E-02 -0.5303595E-02
  0.1430000E+01  0.1997639E-02 -0.3207740E-02 -0.4251007E-09 -0.6048657E-08  0.6372073E-02 -0.1023205E-01
  0.1440000E+01  0.1997639E-02 -0.4604463E-02 -0.4251007E-09 -0.3578544E-08  0.6372073E-02 -0.1468732E-01
  0.1450000E+01  0.1997639E-02 -0.5800049E-02 -0.4251007E-09 -0.9242189E-09  0.6372073E-02 -0.1850100E-01
  0.1460000E+01  0.1997639E-02 -0.6750348E-02 -0.4251007E-09  0.1830458E-08  0.6372073E-02 -0.2153227E-01
  0.1470000E+01  0.1997639E-02 -0.7421462E-02 -0.4251007E-09  0.4596360E-08  0.6372073E-02 -0.2367299E-01
  0.1480000E+01  0.1997639E-02 -0.7790845E-02 -0.4251007E-09  0.7281947E-08  0.6372073E-02 -0.2485124E-01
  0.1490000E+01  0.1997639E-02 -0.7848143E-02 -0.4251007E-09  0.9795942E-08  0.6372073E-02 -0.2503402E-01
  0.1500000E+01  0.1997639E-02 -0.7595373E-02 -0.4251007E-09  0.1205058E-07  0.6372073E-02 -0.2422773E-01
  0.1510000E+01  0.1997639E-02 -0.7046680E-02 -0.4251007E-09  0.1396425E-07  0.6372073E-02 -0.2247750E-01
  0.1520000E+01  0.1997639E-02 -0.6227635E-02 -0.4251007E-09  0.1546421E-07  0.6372073E-02 -0.1986491E-01
  0.1530000E+01  0.1997639E-02 -0.5174084E-02 -0.4251007E-09  0.1648916E-07  0.6372073E-02 -0.1650430E-01
  0.1540000E+01  0.1997639E-02 -0.3930569E-02 -0.4251007E-09  0.1699108E-07  0.6372073E-02 -0.1253773E-01
  0.1550000E+01  0.1997639E-02 -0.2548562E-02 -0.4251007E-09  0.1693718E-07  0.6372073E-02 -0.8129400E-02
  0.1560000E+01  0.1997639E-02 -0.1084243E-02 -0.4251007E-09  0.1631090E-07  0.6372073E-02 -0.3458512E-02
  0.1570000E+01  0.1997639E-02  0.4036763E-03 -0.4251007E-09  0.1511275E-07  0.6372073E-02  0.1287650E-02
  0.1580000E+01  0.1997639E-02  0.1856338E-02 -0.4251007E-09  0.1336030E-07  0.6372073E-02  0.5921350E-02
  0.1590000E+01  0.1997639E-02  0.3217007E-02 -0.4251007E-09  0.1108792E-07  0.6372073E-02  0.1026162E-01
  0.1600000E+01  0.1997639E-02  0.4433294E-02 -0.4251007E-09  0.8345743E-08  0.6372073E-02  0.1414132E-01
  0.1610000E+01  0.1997639E-02  0.5459166E-02 -0.4251007E-09  0.5198300E-08  0.6372073E-02  0.1741366E-01
  0.1620000E+01  0.1997639E-02  0.6256605E-02 -0.4251007E-09  0.1722704E-08  0.6372073E-02  0.1995732E-01
  0.1630000E+01  0.1997639E-02  0.6797103E-02 -0.4251007E-09 -0.1993936E-08  0.6372073E-02  0.2168140E-01
  0.1640000E+01  0.1997639E-02  0.7062584E-02 -0.4251007E-09 -0.5856876E-08  0.6372073E-02  0.2252824E-01
  0.1650000E+01  0.1997639E-02  0.7045995E-02 -0.4251007E-09 -0.9766682E-08  0.6372073E-02  0.2247532E-01
  0.1660000E+01  0.1997639E-02  0.6751502E-02 -0.4251007E-09 -0.1362225E-07  0.6372073E-02  0.2153595E-01
  0.1670000E+01  0.1997639E-02  0.6194104E-02 -0.4251007E-09 -0.1732382E-07  0.6372073E-02  0.1975796E-01
  0.1680000E+01  0.1997639E-02  0.5398974E-02 -0.4251007E-09 -0.2077601E-07  0.6372073E-02  0.1722165E-01
  0.1690000E+01  0.1997639E-02  0.4400346E-02 -0.4251007E-09 -0.2389059E-07  0.6372073E-02  0.1403622E-01
  0.1700000E+01  0.1997639E-02  0.3240026E-02 -0.4251007E-09 -0.2658916E-07  0.6372073E-02  0.1033504E-01
  0.1710000E+01  0.1997639E-02  0.1965702E-02 -0.4251007E-09 -0.2880535E-07  0.6372073E-02  0.6270197E-02
  0.1720000E+01  0.1997639E-02  0.6289581E-03 -0.4251007E-09 -0.3048666E-07  0.6372073E-02  0.2006253E-02
  0.1730000E+01  0.1997639E-02 -0.7167999E-03 -0.4251007E-09 -0.3159600E-07  0.6372073E-02 -0.2286448E-02
  0.1740000E+01  0.1997639E-02 -0.2018354E-02 -0.4251007E-09 -0.3211245E-07  0.6372073E-02 -0.6438148E-02
  0.1750000E+01  0.1997639E-02 -0.3224914E-02 -0.4251007E-09 -0.3203179E-07  0.6372073E-02 -0.1028684E-01
  0.1760000E+01  0.1997639E-02 -0.4290032E-02 -0.4251007E-09 -0.3136616E-07  0.6372073E-02 -0.1368435E-01
  0.1770000E+01  0.1997639E-02 -0.5173325E-02 -0.4251007E-09 -0.3014361E-07  0.6372073E-02 -0.1650188E-01
  0.1780000E+01  0.1997639E-02 -0.5842079E-02 -0.4251007E-09 -0.2840681E-07  0.6372073E-02 -0.1863506E-01
  0.1790000E+01  0.1997639E-02 -0.6272356E-02 -0.4251007E-09 -0.2621150E-07  0.6372073E-02 -0.2000757E-01
  0.1800000E+01  0.1997639E-02 -0.6449928E-02 -0.4251007E-09 -0.2362446E-07  0.6372073E-02 -0.2057398E-01
  0.1810000E+01  0.1997639E-02 -0.6370657E-02 -0.4251007E-09 -0.2072123E-07  0.6372073E-02 -0.2032112E-01
  0.1820000E+01  0.1997639E-02 -0.6040560E-02 -0.4251007E-09 -0.1758357E-07  0.6372073E-02 -0.1926818E-01
  0.1830000E+01  0.1997639E-02 -0.5475488E-02 -0.4251007E-09 -0.1429683E-07  0.6372073E-02 -0.1746572E-01
  0.1840000E+01  0.1997639E-02 -0.4700382E-02 -0.4251007E-09 -0.1094712E-07  0.6372073E-02 -0.1499328E-01
  0.1850000E+01  0.1997639E-02 -0.3748166E-02 -0.4251007E-09 -0.7618711E-08  0.6372073E-02 -0.1195590E-01
  0.1860000E+01  0.1997639E-02 -0.2658383E-02 -0.4251007E-09 -0.4391316E-08  0.6372073E-02 -0.8479712E-02
  0.1870000E+01  0.1997639E-02 -0.1475534E-02 -0.4251007E-09 -0.1338040E-08  0.6372073E-02 -0.4706659E-02
  0.1880000E+01  0.1997639E-02 -0.2473529E-03 -0.4251007E-09  0.1477057E-08  0.6372073E-02 -0.7890019E-03
  0.1890000E+01  0.1997639E-02  0.9771816E-03 -0.4251007E-09  0.4000448E-08  0.6372073E-02  0.3117017E-02
  0.1900000E+01  0.1997639E-02  0.2149778E-02 -0.4251007E-09  0.6190449E-08  0.6372073E-02  0.6857360E-02
  0.1910000E+01  0.1997639E-02  0.3224698E-02 -0.4251007E-09  0.8018215E-08  0.6372073E-02  0.1028614E-01
  0.1920000E+01  0.1997639E-02  0.4160553E-02 -0.4251007E-09  0.9468060E-08  0.6372073E-02  0.1327133E-01
  0.1930000E+01  0.1997639E-02  0.4921885E-02 -0.4251007E-09  0.1053743E-07  0.6372073E-02  0.1569983E-01
  0.1940000E+01  0.1997639E-02  0.5480479E-02 -0.4251007E-09  0.1123657E-07  0.6372073E-02  0.1748163E-01
  0.1950000E+01  0.1997639E-02  0.5816425E-02 -0.4251007E-09  0.1158741E-07  0.6372073E-02  0.1855324E-01
  0.1960000E+01  0.1997639E-02  0.5918818E-02 -0.4251007E-09  0.1162252E-07  0.6372073E-02  0.1887985E-01
  0.1970000E+01  0.1997639E-02  0.5786051E-02 -0.4251007E-09  0.1138321E-07  0.6372073E-02  0.1845635E-01
  0.1980000E+01  0.1997639E-02  0.5425838E-02 -0.4251007E-09  0.1091823E-07  0.6372073E-02  0.1730734E-01
  0.1990000E+01  0.1997639E-02  0.4854793E-02 -0.4251007E-09  0.1028115E-07  0.6372073E-02  0.1548582E-01
  0.2000000E+01  0.1997639E-02  0.4097612E-02 -0.4251007E-09  0.9528693E-08  0.6372073E-02  0.1307056E-01
  0.2010000E+01  0.1997639E-02  0.3186170E-02 -0.4251007E-09  0.8718358E-08  0.6372073E-02  0.1016324E-01
  0.2020000E+01  0.1997639E-02  0.2158082E-02 -0.4251007E-09  0.7906419E-08  0.6372073E-02  0.6883850E-02
  0.2030000E+01  0.1997639E-02  0.1055143E-02 -0.4251007E-09  0.7145968E-08  0.6372073E-02  0.3365694E-02
  0.2040000E+01  0.1997639E-02 -0.7829416E-04 -0.4251007E-09  0.6485077E-08  0.6372073E-02 -0.2497489E-03
  0.2050000E+01  0.1997639E-02 -0.1197115E-02 -0.4251007E-09  0.5965309E-08  0.6372073E-02 -0.3818557E-02
  0.2060000E+01  0.1997639E-02 -0.2257250E-02 -0.4251007E-09  0.5620522E-08  0.6372073E-02 -0.7200185E-02
  0.2070000E+01  0.1997639E-02 -0.3217377E-02 -0.4251007E-09  0.5475961E-08  0.6372073E-02 -0.1026280E-01
  0.2080000E+01  0.1997639E-02 -0.4040542E-02 -0.4251007E-09  0.5547605E-08  0.6372073E-02 -0.1288853E-01
  0.2090000E+01  0.1997639E-02 -0.4695558E-02 -0.4251007E-09  0.5842149E-08  0.6372073E-02 -0.1497790E-01
  0.2100000E+01  0.1997639E-02 -0.5158177E-02 -0.4251007E-09  0.6357052E-08  0.6372073E-02 -0.1645356E-01
  0.2110000E+01  0.1997639E-02 -0.5412028E-02 -0.4251007E-09  0.7081022E-08  0.6372073E-02 -0.1726329E-01
  0.2120000E+01  0.1997639E-02 -0.5449090E-02 -0.4251007E-09  0.7994850E-08  0.6372073E-02 -0.1738151E-01
  0.2130000E+01  0.1997639E-02 -0.5270028E-02 -0.4251007E-09  0.9072507E-08  0.6372073E-02 -0.1681034E-01
  0.2140000E+01  0.1997639E-02 -0.4884041E-02 -0.4251007E-09  0.1028218E-07  0.6372073E-02 -0.1557911E-01
  0.2150000E+01  0.1997639E-02 -0.4308343E-02 -0.4251007E-09  0.1158802E-07  0.6372073E-02 -0.1374275E-01
  0.2160000E+01  0.1997639E-02 -0.3567558E-02 -0.4251007E-09  0.1295129E-07  0.6372073E-02 -0.1137980E-01
  0.2170000E+01  0.1997639E-02 -0.2692614E-02 -0.4251007E-09  0.1433208E-07  0.6372073E-02 -0.8588899E-02
  0.2180000E+01  0.1997639E-02 -0.1719321E-02 -0.4251007E-09  0.1569079E-07  0.6372073E-02 -0.5484286E-02
  0.2190000E+01  0.1997639E-02 -0.6871916E-03 -0.4251007E-09  0.1698937E-07  0.6372073E-02 -0.2191999E-02
  0.2200000E+01  0.1997639E-02  0.3624087E-03 -0.4251007E-09  0.1819273E-07  0.6372073E-02  0.1156014E-02
  0.2210000E+01  0.1997639E-02  0.1387770E-02 -0.4251007E-09  0.1926978E-07  0.6372073E-02  0.4426715E-02
  0.2220000E+01  0.1997639E-02  0.2348573E-02 -0.4251007E-09  0.2019417E-07  0.6372073E-02  0.7491486E-02
  0.2230000E+01  0.1997639E-02  0.3207371E-02 -0.4251007E-09  0.2094501E-07  0.6372073E-02  0.1023088E-01
  0.2240000E+01  0.1997639E-02  0.3931124E-02 -0.4251007E-09  0.2150710E-07  0.6372073E-02  0.1253951E-01
  0.2250000E+01  0.1997639E-02  0.4492439E-02 -0.4251007E-09  0.2187108E-07  0.6372073E-02  0.1432999E-01
  0.2260000E+01  0.1997639E-02  0.4870592E-02 -0.4251007E-09  0.2203328E-07  0.6372073E-02  0.1553622E-01
  0.2270000E+01  0.1997639E-02  0.5052280E-02 -0.4251007E-09  0.2199534E-07  0.6372073E-02  0.1611576E-01
  0.2280000E+01  0.1997639E-02  0.5032111E-02 -0.4251007E-09  0.2176341E-07  0.6372073E-02  0.1605144E-01
  0.2290000E+01  0.1997639E-02  0.4812687E-02 -0.4251007E-09  0.2134786E-07  0.6372073E-02  0.1535152E-01
  0.2300000E+01  0.1997639E-02  0.4404492E-02 -0.4251007E-09  0.2076189E-07  0.6372073E-02  0.1404945E-01
  0.2310000E+01  0.1997639E-02  0.3825428E-02 -0.4251007E-09  0.2002100E-07  0.6372073E-02  0.1220235E-01
  0.2320000E+01  0.1997639E-02  0.3099912E-02 -0.4251007E-09  0.1914185E-07  0.6372073E-02  0.9888104E-02
  0.2330000E+01  0.1997639E-02  0.2257929E-02 -0.4251007E-09  0.1814149E-07  0.6372073E-02  0.7202342E-02
  0.2340000E+01  0.1997639E-02  0.1333902E-02 -0.4251007E-09  0.1703619E-07  0.6372073E-02  0.4254878E-02
  0.2350000E+01  0.1997639E-02  0.3651154E-03 -0.4251007E-09  0.1584114E-07  0.6372073E-02  0.1164639E-02
  0.2360000E+01  0.1997639E-02 -0.6096725E-03 -0.4251007E-09  0.1456977E-07  0.6372073E-02 -0.1944735E-02
  0.2370000E+01  0.1997639E-02 -0.1551820E-02 -0.4251007E-09  0.1323310E-07  0.6372073E-02 -0.4950002E-02
  0.2380000E+01  0.1997639E-02 -0.2424298E-02 -0.4251007E-09  0.1183972E-07  0.6372073E-02 -0.7733037E-02
  0.2390000E+01  0.1997639E-02 -0.3193180E-02 -0.4251007E-09  0.1039597E-07  0.6372073E-02 -0.1018561E-01
  0.2400000E+01  0.1997639E-02 -0.3828891E-02 -0.4251007E-09  0.8905785E-08  0.6372073E-02 -0.1221340E-01
  0.2410000E+01  0.1997639E-02 -0.4307411E-02 -0.4251007E-09  0.7371307E-08  0.6372073E-02 -0.1373979E-01
  0.2420000E+01  0.1997639E-02 -0.4611146E-02 -0.4251007E-09  0.5793260E-08  0.6372073E-02 -0.1470864E-01
  0.2430000E+01  0.1997639E-02 -0.4729558E-02 -0.4251007E-09  0.4171851E-08  0.6372073E-02 -0.1508635E-01
  0.2440000E+01  0.1997639E-02 -0.4659500E-02 -0.4251007E-09  0.2507173E-08  0.6372073E-02 -0.1486288E-01
  0.2450000E+01  0.1997639E-02 -0.4405371E-02 -0.4251007E-09  0.8004159E-09  0.6372073E-02 -0.1405226E-01
  0.2460000E+01  0.1997639E-02 -0.3978812E-02 -0.4251007E-09 -0.9457360E-09  0.6372073E-02 -0.1269162E-01
  0.2470000E+01  0.1997639E-02 -0.3398079E-02 -0.4251007E-09 -0.2726265E-08  0.6372073E-02 -0.1083919E-01
  0.2480000E+01  0.1997639E-02 -0.2687528E-02 -0.4251007E-09 -0.4533014E-08  0.6372073E-02 -0.8572681E-02
  0.2490000E+01  0.1997639E-02 -0.1876385E-02 -0.4251007E-09 -0.6354365E-08  0.6372073E-02 -0.5985286E-02
  0.2500000E+01  0.1997639E-02 -0.9975896E-03 -0.4251007E-09 -0.8174799E-08  0.6372073E-02 -0.3182111E-02
  0.2510000E+01  0.1997639E-02 -0.8650105E-04 -0.4251007E-09 -0.9975119E-08  0.6372073E-02 -0.2759171E-03
  0.2520000E+01  0.1997639E-02  0.8205230E-03 -0.4251007E-09 -0.1173203E-07  0.6372073E-02  0.2617310E-02
  0.2530000E+01  0.1997639E-02  0.1687587E-02 -0.4251007E-09 -0.1341886E-07  0.6372073E-02  0.5383075E-02
  0.2540000E+01  0.1997639E-02  0.2480685E-02 -0.4251007E-09 -0.1500623E-07  0.6372073E-02  0.7912894E-02
  0.2550000E+01  0.1997639E-02  0.3168983E-02 -0.4251007E-09 -0.1646262E-07  0.6372073E-02  0.1010843E-01
  0.2560000E+01  0.1997639E-02  0.3726119E-02 -0.4251007E-09 -0.1775549E-07  0.6372073E-02  0.1188558E-01
  0.2570000E+01  0.1997639E-02  0.4131056E-02 -0.4251007E-09 -0.1885250E-07  0.6372073E-02  0.1317725E-01
  0.2580000E+01  0.1997639E-02  0.4368986E-02 -0.4251007E-09 -0.1972279E-07  0.6372073E-02  0.1393620E-01
  0.2590000E+01  0.1997639E-02  0.4431839E-02 -0.4251007E-09 -0.2033840E-07  0.6372073E-02  0.1413669E-01
  0.2600000E+01  0.1997639E-02  0.4318542E-02 -0.4251007E-09 -0.2067557E-07  0.6372073E-02  0.1377530E-01
  0.2610000E+01  0.1997639E-02  0.4034983E-02 -0.4251007E-09 -0.2071606E-07  0.6372073E-02  0.1287079E-01
  0.2620000E+01  0.1997639E-02  0.3593747E-02 -0.4251007E-09 -0.2044853E-07  0.6372073E-02  0.1146333E-01
  0.2630000E+01  0.1997639E-02  0.3013579E-02 -0.4251007E-09 -0.1986946E-07  0.6372073E-02  0.9612718E-02
  0.2640000E+01  0.1997639E-02  0.2318591E-02 -0.4251007E-09 -0.1898401E-07  0.6372073E-02  0.7395841E-02
  0.2650000E+01  0.1997639E-02  0.1537193E-02 -0.4251007E-09 -0.1780647E-07  0.6372073E-02  0.4903337E-02
  0.2660000E+01  0.1997639E-02  0.7010359E-03 -0.4251007E-09 -0.1636072E-07  0.6372073E-02  0.2236161E-02
  0.2670000E+01  0.1997639E-02 -0.1563061E-03 -0.4251007E-09 -0.1467985E-07  0.6372073E-02 -0.4985890E-03
  0.2680000E+01  0.1997639E-02 -0.1000709E-02 -0.4251007E-09 -0.1280591E-07  0.6372073E-02 -0.3192067E-02
  0.2690000E+01  0.1997639E-02 -0.1798833E-02 -0.4251007E-09 -0.1078860E-07  0.6372073E-02 -0.5737923E-02
  0.2700000E+01  0.1997639E-02 -0.2519361E-02 -0.4251007E-09 -0.8685020E-08  0.6372073E-02 -0.8036260E-02
  0.2710000E+01  0.1997639E-02 -0.3134364E-02 -0.4251007E-09 -0.6557036E-08  0.6372073E-02 -0.9998005E-02
  0.2720000E+01  0.1997639E-02 -0.3620303E-02 -0.4251007E-09 -0.4470201E-08  0.6372073E-02 -0.1154805E-01
  0.2730000E+01  0.1997639E-02 -0.3958900E-02 -0.4251007E-09 -0.2491369E-08  0.6372073E-02 -0.1262811E-01
  0.2740000E+01  0.1997639E-02 -0.4137874E-02 -0.4251007E-09 -0.6867068E-09  0.6372073E-02 -0.1319900E-01
  0.2750000E+01  0.1997639E-02 -0.4151361E-02 -0.4251007E-09  0.8807133E-09  0.6372073E-02 -0.1324202E-01
  0.2760000E+01  0.1997639E-02 -0.4000082E-02 -0.4251007E-09  0.2153192E-08  0.6372073E-02 -0.1275947E-01
  0.2770000E+01  0.1997639E-02 -0.3691295E-02 -0.4251007E-09  0.3080664E-08  0.6372073E-02 -0.1177450E-01
  0.2780000E+01  0.1997639E-02 -0.3238456E-02 -0.4251007E-09  0.3622587E-08  0.6372073E-02 -0.1033003E-01