VARIABLES="w (rad/s)"
"A   1   1" "B   1   1"
"A   1   2" "B   1   2"
"A   1   3" "B   1   3"
Zone t="Motion of body    1 in DoF   1",I=   100,F=POINT
  0.1000000E+00  0.2016977E-02 -0.8645328E-16  0.2692104E-08 -0.5565111E-14  0.6433754E-02 -0.2757695E-15
  0.3010101E+00  0.2013357E-02  0.2744432E-14  0.9427004E-09  0.5519360E-12  0.6422209E-02  0.8754201E-14
  0.5020202E+00  0.2017279E-02  0.1874225E-12  0.9130815E-09  0.1866837E-11  0.6434717E-02  0.5978404E-12
  0.7030303E+00  0.2020193E-02  0.1510352E-10  0.6623631E-09 -0.6952493E-11  0.6444017E-02  0.4817723E-10
  0.9040404E+00  0.2018280E-02  0.5322825E-10 -0.3219306E-10 -0.7780598E-11  0.6437914E-02  0.1697875E-09
  0.1105051E+01  0.2021868E-02  0.2697326E-09 -0.2712720E-08 -0.4888090E-10  0.6449358E-02  0.8603935E-09
  0.1306061E+01  0.2020502E-02  0.8495366E-09 -0.2852309E-08 -0.9054665E-10  0.6445001E-02  0.2709853E-08
  0.1507071E+01  0.2016702E-02  0.2277533E-08 -0.5407225E-09 -0.4731415E-10  0.6432880E-02  0.7264877E-08
  0.1708081E+01  0.2024561E-02  0.5447046E-08 -0.1516463E-08 -0.1192281E-09  0.6457946E-02  0.1737500E-07
  0.1909091E+01  0.2021297E-02  0.1193994E-07  0.3811216E-08  0.1623530E-09  0.6447534E-02  0.3808601E-07
  0.2110101E+01  0.2026558E-02  0.2398788E-07  0.1627530E-08  0.1194136E-09  0.6464317E-02  0.7651659E-07
  0.2311111E+01  0.2023120E-02  0.4512611E-07  0.3752715E-08  0.3146150E-10  0.6453353E-02  0.1439433E-06
  0.2512121E+01  0.2027827E-02  0.8057948E-07  0.2154877E-08  0.2309006E-09  0.6468365E-02  0.2570326E-06
  0.2713131E+01  0.2032515E-02  0.1377606E-06  0.4505352E-09 -0.4962608E-10  0.6483319E-02  0.4394291E-06
  0.2914141E+01  0.2028454E-02  0.2264467E-06 -0.4394326E-09 -0.4186322E-09  0.6470365E-02  0.7223201E-06
  0.3115151E+01  0.2033922E-02  0.3597912E-06  0.8520516E-08  0.1170761E-08  0.6487807E-02  0.1147662E-05
  0.3316161E+01  0.2038045E-02  0.5550970E-06  0.4159996E-08  0.3503402E-09  0.6500960E-02  0.1770650E-05
  0.3517171E+01  0.2041580E-02  0.8344565E-06 -0.1952849E-08 -0.1298723E-08  0.6512234E-02  0.2661750E-05
  0.3718182E+01  0.2035467E-02  0.1225600E-05 -0.9392923E-09 -0.9849828E-09  0.6492738E-02  0.3909420E-05
  0.3919192E+01  0.2045854E-02  0.1763354E-05 -0.9059692E-09 -0.1515019E-08  0.6525867E-02  0.5624750E-05
  0.4120202E+01  0.2053528E-02  0.2490100E-05 -0.1234733E-07 -0.7559748E-08  0.6550347E-02  0.7942924E-05
  0.4321212E+01  0.2064904E-02  0.3457441E-05 -0.2020533E-07 -0.1309289E-07  0.6586631E-02  0.1102855E-04
  0.4522222E+01  0.2067987E-02  0.4726440E-05 -0.5200075E-08 -0.5191339E-08  0.6596468E-02  0.1507640E-04
  0.4723232E+01  0.2057283E-02  0.6369693E-05 -0.2023550E-07 -0.1596544E-07  0.6562325E-02  0.2031806E-04
  0.4924242E+01  0.2062743E-02  0.8472705E-05 -0.2510703E-07 -0.2406557E-07  0.6579739E-02  0.2702625E-04
  0.5125252E+01  0.2075351E-02  0.1113547E-04 -0.2689346E-07 -0.2760407E-07  0.6619958E-02  0.3551994E-04
  0.5326262E+01  0.2084299E-02  0.1447359E-04  0.2384583E-07  0.2655236E-07  0.6648496E-02  0.4616788E-04
  0.5527273E+01  0.2090802E-02  0.1862011E-04  0.3984927E-07  0.4892854E-07  0.6669242E-02  0.5939447E-04
  0.5728283E+01  0.2092032E-02  0.2372813E-04  0.1247826E-07  0.1678131E-07  0.6673166E-02  0.7568803E-04
  0.5929293E+01  0.2089144E-02  0.2997015E-04 -0.1470581E-07 -0.2469801E-07  0.6663955E-02  0.9559883E-04
  0.6130303E+01  0.2092884E-02  0.3752637E-04 -0.1579980E-07 -0.3121204E-07  0.6675883E-02  0.1197017E-03
  0.6331313E+01  0.2101796E-02  0.4661122E-04  0.6619403E-08  0.1336002E-07  0.6704312E-02  0.1486806E-03
  0.6532323E+01  0.2112634E-02  0.5746307E-04 -0.2862121E-07 -0.5934589E-07  0.6738883E-02  0.1832958E-03
  0.6733334E+01  0.2125313E-02  0.7034354E-04  0.9146094E-08  0.1849730E-07  0.6779328E-02  0.2243819E-03
  0.6934343E+01  0.2134948E-02  0.8555091E-04  0.1420284E-07  0.3422520E-07  0.6810056E-02  0.2728903E-03
  0.7135354E+01  0.2138522E-02  0.1034229E-03 -0.1778366E-07 -0.4994399E-07  0.6821461E-02  0.3298984E-03
  0.7336363E+01  0.2138248E-02  0.1243185E-03 -0.6125149E-08 -0.2094475E-07  0.6820583E-02  0.3965514E-03
  0.7537374E+01  0.2139631E-02  0.1485536E-03 -0.9591393E-08 -0.3022251E-07  0.6824999E-02  0.4738567E-03
  0.7738384E+01  0.2149807E-02  0.1764325E-03  0.6077728E-08  0.1852641E-07  0.6857457E-02  0.5627844E-03
  0.7939394E+01  0.2162633E-02  0.2084102E-03 -0.2785970E-08 -0.1908666E-07  0.6898372E-02  0.6647874E-03
  0.8140405E+01  0.2173196E-02  0.2449865E-03 -0.3746842E-08 -0.1363514E-07  0.6932063E-02  0.7814583E-03
  0.8341414E+01  0.2185014E-02  0.2866019E-03  0.3544901E-08  0.1104854E-07  0.6969758E-02  0.9142032E-03
  0.8542424E+01  0.2196214E-02  0.3337895E-03  0.3461487E-08 -0.1662556E-08  0.7005485E-02  0.1064722E-02
  0.8743435E+01  0.2206989E-02  0.3870872E-03  0.3621571E-08  0.1083390E-07  0.7039857E-02  0.1234732E-02
  0.8944445E+01  0.2215958E-02  0.4471106E-03  0.8069534E-09 -0.6697519E-08  0.7068467E-02  0.1426194E-02
  0.9145455E+01  0.2222614E-02  0.5145129E-03  0.4047920E-08  0.5533366E-08  0.7089699E-02  0.1641195E-02
  0.9346465E+01  0.2224524E-02  0.5900260E-03  0.4758018E-08 -0.1717126E-08  0.7095790E-02  0.1882066E-02
  0.9547475E+01  0.2231923E-02  0.6732368E-03 -0.3097101E-08 -0.1831359E-07  0.7119388E-02  0.2147492E-02
  0.9748485E+01  0.2242220E-02  0.7649005E-03 -0.2961589E-08 -0.2943125E-07  0.7152237E-02  0.2439880E-02
  0.9949495E+01  0.2254403E-02  0.8656406E-03  0.1778495E-08 -0.1899025E-08  0.7191099E-02  0.2761221E-02
  0.1015051E+02  0.2266829E-02  0.9761459E-03 -0.1146891E-09 -0.9691576E-08  0.7230734E-02  0.3113712E-02
  0.1035151E+02  0.2280405E-02  0.1096862E-02  0.1259576E-08  0.1076114E-07  0.7274040E-02  0.3498771E-02
  0.1055252E+02  0.2293980E-02  0.1228470E-02 -0.1345903E-08 -0.1171429E-07  0.7317340E-02  0.3918576E-02
  0.1075354E+02  0.2304625E-02  0.1372067E-02  0.4676731E-08  0.2143497E-07  0.7351292E-02  0.4376626E-02
  0.1095455E+02  0.2314602E-02  0.1527951E-02 -0.3698238E-08 -0.5078618E-07  0.7383122E-02  0.4873857E-02
  0.1115556E+02  0.2323013E-02  0.1696968E-02  0.1648830E-08  0.4176400E-08  0.7409949E-02  0.5412994E-02
  0.1135657E+02  0.2329880E-02  0.1879840E-02 -0.1148103E-08 -0.1174340E-07  0.7431853E-02  0.5996317E-02
  0.1155758E+02  0.2335483E-02  0.2077200E-02  0.2034673E-08  0.1628359E-07  0.7449729E-02  0.6625855E-02
  0.1175859E+02  0.2339538E-02  0.2289413E-02  0.1405864E-08  0.2793968E-08  0.7462661E-02  0.7302771E-02
  0.1195960E+02  0.2346492E-02  0.2512576E-02 -0.9539367E-09 -0.1519220E-07  0.7484845E-02  0.8014617E-02
  0.1216061E+02  0.2354655E-02  0.2748108E-02  0.6892666E-09 -0.9138603E-08  0.7510882E-02  0.8765923E-02
  0.1236162E+02  0.2361431E-02  0.2997767E-02  0.1205438E-08 -0.6228220E-08  0.7532497E-02  0.9562280E-02
  0.1256263E+02  0.2367971E-02  0.3261283E-02  0.1464154E-08  0.9487849E-08  0.7553357E-02  0.1040284E-01
  0.1276364E+02  0.2373360E-02  0.3539566E-02 -0.1003294E-08 -0.7072231E-08  0.7570545E-02  0.1129051E-01
  0.1296465E+02  0.2378482E-02  0.3832121E-02 -0.1436711E-09  0.7654307E-08  0.7586884E-02  0.1222370E-01
  0.1316566E+02  0.2383071E-02  0.4139293E-02  0.2829551E-08  0.1312583E-07  0.7601524E-02  0.1320352E-01
  0.1336667E+02  0.2386446E-02  0.4461932E-02 -0.4337268E-08 -0.6012851E-07  0.7612286E-02  0.1423267E-01
  0.1356768E+02  0.2389011E-02  0.4799030E-02  0.1132605E-08 -0.1647277E-07  0.7620471E-02  0.1530795E-01
  0.1376869E+02  0.2391948E-02  0.5144696E-02  0.3348210E-08  0.2415618E-07  0.7629839E-02  0.1641056E-01
  0.1396970E+02  0.2394483E-02  0.5500662E-02  0.1183345E-08 -0.1618173E-07  0.7637922E-02  0.1754602E-01
  0.1417071E+02  0.2395394E-02  0.5869143E-02  0.2234537E-08  0.4365575E-08  0.7640829E-02  0.1872140E-01
  0.1437172E+02  0.2395287E-02  0.6249325E-02  0.2041277E-08  0.6926712E-08  0.7640491E-02  0.1993411E-01
  0.1457273E+02  0.2394669E-02  0.6640005E-02  0.3994287E-09 -0.3719470E-07  0.7638519E-02  0.2118030E-01
  0.1477374E+02  0.2392902E-02  0.7042483E-02  0.1197742E-08 -0.2264278E-07  0.7632882E-02  0.2246412E-01
  0.1497475E+02  0.2390292E-02  0.7455992E-02  0.1119472E-08  0.1449371E-07  0.7624559E-02  0.2378313E-01
  0.1517576E+02  0.2387293E-02  0.7877789E-02 -0.9205364E-10 -0.4138565E-07  0.7614990E-02  0.2512858E-01
  0.1537677E+02  0.2383681E-02  0.8303110E-02 -0.7268022E-09 -0.1117587E-07  0.7603467E-02  0.2648527E-01
  0.1557778E+02  0.2379659E-02  0.8732304E-02  0.1853345E-08  0.1071021E-07  0.7590641E-02  0.2785431E-01
  0.1577879E+02  0.2375021E-02  0.9165873E-02  0.7673081E-09 -0.4423782E-08  0.7575847E-02  0.2923732E-01
  0.1597980E+02  0.2369446E-02  0.9605183E-02  0.1165625E-08  0.2945308E-07  0.7558061E-02  0.3063863E-01
  0.1618081E+02  0.2363346E-02  0.1004838E-01 -0.5755723E-10  0.6868504E-08  0.7538608E-02  0.3205233E-01
  0.1638182E+02  0.2355708E-02  0.1050071E-01  0.6537863E-09  0.1478475E-07  0.7514238E-02  0.3349517E-01
  0.1658283E+02  0.2347537E-02  0.1095694E-01  0.7862660E-09 -0.8149073E-09  0.7488177E-02  0.3495046E-01
  0.1678384E+02  0.2338680E-02  0.1141185E-01  0.1581443E-08  0.2258457E-07  0.7459922E-02  0.3640154E-01
  0.1698485E+02  0.2329262E-02  0.1186608E-01  0.0000000E+00 -0.5203765E-07  0.7429884E-02  0.3785043E-01
  0.1718586E+02  0.2319427E-02  0.1231900E-01  0.1652832E-08 -0.2281740E-07  0.7398509E-02  0.3929515E-01
  0.1738687E+02  0.2309049E-02  0.1277214E-01  0.2651453E-08 -0.1536682E-07  0.7365406E-02  0.4074060E-01
  0.1758788E+02  0.2298098E-02  0.1322628E-01  0.1509147E-08  0.1548324E-07  0.7330477E-02  0.4218920E-01
  0.1778889E+02  0.2286771E-02  0.1368022E-01  0.7853125E-10 -0.1571607E-07  0.7294344E-02  0.4363719E-01
  0.1798990E+02  0.2275043E-02  0.1413222E-01  0.1889575E-08  0.3178138E-07  0.7256935E-02  0.4507898E-01
  0.1819091E+02  0.2263136E-02  0.1457576E-01  0.8191542E-09 -0.9778887E-08  0.7218953E-02  0.4649379E-01
  0.1839192E+02  0.2251014E-02  0.1501312E-01  0.5063759E-10 -0.2956949E-07  0.7180287E-02  0.4788888E-01
  0.1859293E+02  0.2238486E-02  0.1544781E-01  0.1252254E-09  0.4074536E-08  0.7140325E-02  0.4927542E-01
  0.1879394E+02  0.2225446E-02  0.1588236E-01  0.5698757E-09 -0.1851004E-07  0.7098729E-02  0.5066153E-01
  0.1899495E+02  0.2212013E-02  0.1631725E-01 -0.9806003E-10 -0.2817251E-07  0.7055883E-02  0.5204876E-01
  0.1919596E+02  0.2198445E-02  0.1674789E-01 -0.2425830E-10  0.8149073E-09  0.7012606E-02  0.5342244E-01
  0.1939697E+02  0.2184760E-02  0.1717031E-01 -0.1440414E-09  0.2700835E-07  0.6968948E-02  0.5476988E-01
  0.1959798E+02  0.2171011E-02  0.1758566E-01  0.2376068E-10 -0.1536682E-07  0.6925093E-02  0.5609475E-01
  0.1979899E+02  0.2157169E-02  0.1799550E-01  0.6350250E-09  0.1839362E-07  0.6880942E-02  0.5740209E-01
  0.2000000E+02  0.2143197E-02  0.1840300E-01 -0.3026798E-09  0.2840534E-07  0.6836376E-02  0.5870190E-01
Zone t="Motion of body    1 in DoF   2",I=   100,F=POINT
  0.1000000E+00 -0.5456968E-09  0.1332268E-14  0.2189533E+00  0.2012428E-05  0.3783498E-08  0.5329071E-14
  0.3010101E+00  0.3867489E-09 -0.7105427E-14  0.2194014E+00  0.5486201E-04  0.2513868E-08 -0.2842171E-13
  0.5020202E+00  0.1159469E-09 -0.8526513E-12  0.2198302E+00  0.2542769E-03 -0.4637874E-09  0.3751666E-11
  0.7030303E+00 -0.1614510E-08  0.4547474E-12  0.2193081E+00  0.6974124E-03  0.5464495E-08 -0.1409717E-10
  0.9040404E+00  0.3541237E-09 -0.9777068E-11  0.2202613E+00  0.1480317E-02  0.9014058E-09  0.1000444E-10
  0.1105051E+01 -0.1395866E-08  0.2773959E-10  0.2210628E+00  0.2697500E-02  0.5267418E-09  0.8003553E-10
  0.1306061E+01  0.1247885E-08 -0.1182343E-10  0.2227194E+00  0.4441298E-02  0.4635003E-08 -0.2182787E-10
  0.1507071E+01  0.2587744E-08 -0.1818989E-10  0.2244091E+00  0.6801552E-02  0.6179686E-09  0.1346052E-09
  0.1708081E+01 -0.6134006E-09 -0.1637090E-10  0.2243043E+00  0.9866191E-02  0.8178674E-09 -0.8731149E-10
  0.1909091E+01  0.5793048E-09  0.6002665E-10  0.2266795E+00  0.1371605E-01 -0.9756712E-09  0.2255547E-09
  0.2110101E+01  0.2758525E-09  0.1346052E-09  0.2266695E+00  0.1843507E-01  0.1324092E-08 -0.2983143E-09
  0.2311111E+01  0.1007440E-09  0.2655725E-09  0.2278222E+00  0.2409407E-01  0.9066963E-09 -0.7275958E-10
  0.2512121E+01  0.1343902E-08 -0.1818989E-09  0.2295719E+00  0.3076167E-01  0.5931705E-08 -0.1455192E-10
  0.2713131E+01  0.9010703E-09 -0.2546585E-09  0.2294657E+00  0.3851430E-01 -0.3432649E-09  0.1600711E-09
  0.2914141E+01 -0.2277060E-08 -0.1309672E-09  0.2307858E+00  0.4739376E-01  0.0000000E+00  0.1455192E-09
  0.3115151E+01  0.1233233E-08 -0.8003553E-10  0.2324970E+00  0.5745282E-01  0.4036034E-08 -0.6111804E-09
  0.3316161E+01  0.2703120E-08 -0.8731149E-10  0.2324167E+00  0.6876814E-01  0.5897716E-08 -0.2910383E-09
  0.3517171E+01 -0.3971896E-09  0.3492460E-09  0.2326254E+00  0.8135725E-01 -0.5693051E-08 -0.5820766E-10
  0.3718182E+01 -0.2191682E-09  0.1600711E-09  0.2341609E+00  0.9521571E-01 -0.7514338E-09 -0.6402843E-09
  0.3919192E+01 -0.4158547E-09 -0.8731149E-10  0.2352169E+00  0.1104053E+00 -0.2970391E-08  0.5820766E-10
  0.4120202E+01 -0.3475336E-08 -0.5820766E-10  0.2351577E+00  0.1269825E+00 -0.1774399E-07  0.5820766E-09
  0.4321212E+01 -0.8890344E-08 -0.9604264E-09  0.2352367E+00  0.1449143E+00 -0.3351390E-07 -0.5820766E-10
  0.4522222E+01 -0.3089154E-08  0.3783498E-09  0.2355706E+00  0.1641849E+00 -0.5251561E-08  0.0000000E+00
  0.4723232E+01 -0.6457615E-08 -0.2910383E-09  0.2361985E+00  0.1847667E+00 -0.2523892E-07  0.1164153E-09
  0.4924242E+01 -0.8936399E-08  0.8731149E-09  0.2362636E+00  0.2067270E+00 -0.3385430E-07  0.3725290E-08
  0.5125252E+01 -0.9767049E-08  0.2037268E-08  0.2360495E+00  0.2300337E+00 -0.2244150E-07  0.6053597E-08
  0.5326262E+01  0.1267697E-07  0.1280569E-08  0.2354409E+00  0.2546934E+00  0.4729823E-07  0.0000000E+00
  0.5527273E+01  0.1335330E-07  0.0000000E+00  0.2348589E+00  0.2806154E+00  0.4532538E-07  0.8149073E-09
  0.5728283E+01  0.4227163E-08  0.1164153E-09  0.2345365E+00  0.3076935E+00  0.8942076E-08  0.2211891E-08
  0.5929293E+01 -0.4123125E-08 -0.5820766E-09  0.2345825E+00  0.3358068E+00 -0.1523593E-07 -0.1164153E-08
  0.6130303E+01 -0.4671575E-08 -0.2910383E-09  0.2338937E+00  0.3652155E+00 -0.1397674E-07  0.5587935E-08
  0.6331313E+01  0.2390340E-08 -0.1455192E-08  0.2329274E+00  0.3957780E+00  0.5883914E-08 -0.8381903E-08
  0.6532323E+01 -0.1361557E-07  0.2153683E-08  0.2317751E+00  0.4274302E+00 -0.3920714E-07  0.1420267E-07
  0.6733334E+01  0.2005571E-08  0.4656613E-09  0.2306232E+00  0.4600319E+00  0.1798098E-07  0.2328306E-09
  0.6934343E+01  0.9099219E-08  0.1280569E-08  0.2294022E+00  0.4935450E+00  0.2511519E-07  0.1117587E-07
  0.7135354E+01 -0.8386055E-08  0.3376044E-08  0.2281304E+00  0.5278856E+00 -0.2584341E-07  0.0000000E+00
  0.7336363E+01 -0.2729341E-08 -0.2793968E-08  0.2271010E+00  0.5627486E+00 -0.5585628E-08 -0.6984919E-09
  0.7537374E+01 -0.5776459E-08 -0.1629815E-08  0.2259282E+00  0.5983186E+00 -0.1556864E-07 -0.1396984E-08
  0.7738384E+01  0.3038864E-08  0.3958121E-08  0.2245087E+00  0.6346595E+00  0.1456248E-07  0.4190952E-08
  0.7939394E+01 -0.3695076E-08 -0.2677552E-08  0.2229154E+00  0.6716751E+00 -0.1219961E-07  0.1676381E-07
  0.8140405E+01 -0.1773315E-08  0.7334165E-08  0.2210304E+00  0.7094845E+00 -0.1487296E-08 -0.3259629E-08
  0.8341414E+01  0.1507281E-08 -0.6984919E-09  0.2191113E+00  0.7477637E+00  0.3907765E-08 -0.4656613E-09
  0.8542424E+01 -0.1226511E-08  0.2328306E-08  0.2171375E+00  0.7864758E+00 -0.3270697E-08 -0.1396984E-08
  0.8743435E+01  0.1997190E-08 -0.7101335E-08  0.2152175E+00  0.8253785E+00  0.8734377E-08 -0.1443550E-07
  0.8944445E+01 -0.1691999E-08 -0.2910383E-08  0.2133520E+00  0.8643569E+00 -0.8329841E-09  0.1862645E-08
  0.9145455E+01  0.1222014E-08  0.1396984E-08  0.2116019E+00  0.9031671E+00  0.7128413E-09  0.2793968E-07
  0.9346465E+01  0.1843421E-08 -0.5820766E-08  0.2098259E+00  0.9419851E+00  0.4384352E-08  0.9313226E-09
  0.9547475E+01 -0.1438811E-08 -0.6868504E-08  0.2078214E+00  0.9813286E+00 -0.2926394E-09 -0.2188608E-07
  0.9748485E+01 -0.1337492E-08  0.2211891E-08  0.2056988E+00  0.1020969E+01 -0.7165133E-08  0.1350418E-07
  0.9949495E+01 -0.1193464E-08  0.1629815E-08  0.2035299E+00  0.1060713E+01  0.4773856E-08 -0.1257285E-07
  0.1015051E+02 -0.6881348E-10  0.2328306E-09  0.2012780E+00  0.1100667E+01 -0.7340105E-09 -0.2793968E-08
  0.1035151E+02  0.1349546E-09 -0.6519258E-08  0.1990432E+00  0.1140494E+01 -0.3598789E-09 -0.4144385E-07
  0.1055252E+02  0.8384314E-09  0.6286427E-08  0.1968099E+00  0.1180201E+01 -0.2735934E-08  0.2747402E-07
  0.1075354E+02  0.1905335E-08 -0.4423782E-08  0.1944793E+00  0.1220184E+01  0.1212486E-08 -0.9313226E-09
  0.1095455E+02 -0.1955390E-08 -0.3026798E-08  0.1921964E+00  0.1259830E+01 -0.5951188E-08 -0.2002344E-07
  0.1115556E+02  0.1460989E-08  0.1303852E-07  0.1899384E+00  0.1299180E+01  0.4925619E-08  0.7450581E-08
  0.1135657E+02 -0.2050184E-09  0.1164153E-08  0.1877411E+00  0.1337982E+01 -0.1640148E-08  0.3818423E-07
  0.1155758E+02  0.1329588E-08 -0.2095476E-08  0.1856544E+00  0.1375835E+01  0.4673704E-08  0.2048910E-07
  0.1175859E+02  0.1108850E-08  0.1629815E-08  0.1836167E+00  0.1412982E+01  0.0000000E+00 -0.9313226E-09
  0.1195960E+02 -0.7787238E-10 -0.1396984E-08  0.1815012E+00  0.1450422E+01  0.1245958E-08 -0.5587935E-08
  0.1216061E+02 -0.1110485E-08 -0.1094304E-07  0.1793714E+00  0.1487746E+01 -0.1608289E-08  0.9313226E-09
  0.1236162E+02 -0.8287384E-09 -0.2328306E-08  0.1771766E+00  0.1525396E+01 -0.4821750E-08  0.3073364E-07
  0.1256263E+02 -0.1223217E-08  0.4656613E-08  0.1749946E+00  0.1562808E+01  0.1112015E-08 -0.1117587E-07
  0.1276364E+02 -0.1203953E-08 -0.7450581E-08  0.1727931E+00  0.1600296E+01  0.9485690E-09 -0.3259629E-07
  0.1296465E+02  0.1041615E-08  0.2328306E-08  0.1706367E+00  0.1637264E+01  0.1580382E-08 -0.2980232E-07
  0.1316566E+02  0.7781265E-09  0.1490116E-07  0.1685248E+00  0.1673638E+01 -0.4244326E-09 -0.3166497E-07
  0.1336667E+02 -0.1358662E-08  0.2793968E-08  0.1664376E+00  0.1709565E+01 -0.3483749E-09  0.7450581E-08
  0.1356768E+02  0.1921996E-08 -0.1001172E-07  0.1643876E+00  0.1744887E+01  0.5491418E-09 -0.1583248E-07
  0.1376869E+02  0.2773265E-08  0.1071021E-07  0.1623491E+00  0.1780228E+01  0.5817092E-08  0.3725290E-08
  0.1396970E+02  0.9333426E-09 -0.2910383E-07  0.1603203E+00  0.1815569E+01  0.1200012E-08 -0.1173466E-06
  0.1417071E+02  0.9858249E-09 -0.1862645E-08  0.1582734E+00  0.1851385E+01 -0.5257733E-09 -0.8381903E-08
  0.1437172E+02  0.6480244E-10 -0.3259629E-08  0.1562354E+00  0.1887340E+01 -0.3888146E-09 -0.2700835E-07
  0.1457273E+02 -0.3514972E-09  0.1234002E-07  0.1542339E+00  0.1922927E+01 -0.3067612E-08  0.6519258E-08
  0.1477374E+02 -0.1954211E-08 -0.1699664E-07  0.1522377E+00  0.1958699E+01  0.6934296E-09 -0.5960464E-07
  0.1497475E+02  0.2052365E-08 -0.1839362E-07  0.1502626E+00  0.1994324E+01  0.7400951E-08  0.2421439E-07
  0.1517576E+02 -0.2025180E-08 -0.1396984E-08  0.1483254E+00  0.2029399E+01 -0.5093634E-08  0.2793968E-08
  0.1537677E+02 -0.1817006E-09  0.6053597E-08  0.1464034E+00  0.2065009E+01  0.1877573E-08  0.2607703E-07
  0.1557778E+02  0.7772092E-09  0.1862645E-08  0.1445115E+00  0.2100569E+01  0.1147878E-07 -0.9313226E-09
  0.1577879E+02 -0.1239498E-08 -0.1862645E-08  0.1426413E+00  0.2136161E+01 -0.2242901E-08 -0.3725290E-08
  0.1597980E+02  0.1194765E-08 -0.5587935E-08  0.1407768E+00  0.2172284E+01  0.3555156E-08  0.8381903E-08
  0.1618081E+02  0.1036030E-08  0.4190952E-08  0.1389305E+00  0.2208283E+01  0.6676638E-08 -0.6239861E-07
  0.1638182E+02  0.1392849E-08 -0.2607703E-07  0.1370706E+00  0.2245534E+01 -0.5685098E-10  0.9313226E-08
  0.1658283E+02 -0.9547516E-09  0.1816079E-07  0.1352189E+00  0.2282861E+01  0.3706683E-08  0.2793968E-08
  0.1678384E+02  0.1054296E-08  0.4656613E-09  0.1333814E+00  0.2321237E+01  0.4883054E-08  0.2793968E-08
  0.1698485E+02 -0.2823876E-08 -0.2654269E-07  0.1315561E+00  0.2360509E+01 -0.8170050E-08 -0.8009374E-07
  0.1718586E+02  0.2709561E-09  0.1117587E-07  0.1297389E+00  0.2400248E+01 -0.1625736E-08 -0.9313226E-08
  0.1738687E+02 -0.1017729E-08 -0.5122274E-08  0.1279202E+00  0.2440984E+01 -0.6374200E-08 -0.9313226E-09
  0.1758788E+02  0.1429718E-08  0.1303852E-07  0.1260906E+00  0.2482746E+01  0.4342107E-08  0.1396984E-07
  0.1778889E+02  0.2617708E-09  0.3259629E-08  0.1242415E+00  0.2525257E+01  0.1884750E-08 -0.3725290E-07
  0.1798990E+02  0.1449537E-08  0.9313226E-09  0.1223763E+00  0.2569190E+01  0.3261459E-08  0.1154840E-06
  0.1819091E+02  0.0000000E+00  0.0000000E+00  0.1205030E+00  0.2614345E+01 -0.1791900E-08 -0.5587935E-07
  0.1839192E+02 -0.2481242E-08  0.1862645E-08  0.1186027E+00  0.2660768E+01 -0.9621143E-08  0.3911555E-07
  0.1859293E+02  0.2254057E-09  0.8381903E-08  0.1166664E+00  0.2709313E+01  0.3506310E-09  0.4656613E-07
  0.1879394E+02 -0.1684850E-08 -0.9313226E-09  0.1146749E+00  0.2760239E+01 -0.4459897E-09 -0.4470348E-07
  0.1899495E+02 -0.9560852E-09 -0.1816079E-07  0.1126165E+00  0.2813731E+01 -0.3088891E-08 -0.4097819E-07
  0.1919596E+02  0.9703319E-09  0.2887100E-07  0.1104727E+00  0.2869516E+01 -0.4851660E-09  0.3911555E-07
  0.1939697E+02  0.1224352E-08  0.7916242E-08  0.1082660E+00  0.2928543E+01  0.2064594E-08  0.6519258E-07
  0.1959798E+02  0.8553844E-09 -0.1909211E-07  0.1059527E+00  0.2990535E+01  0.1045470E-08 -0.7078052E-07
  0.1979899E+02  0.7761417E-09 -0.2793968E-08  0.1035023E+00  0.3055832E+01  0.3810150E-08 -0.9313226E-08
  0.2000000E+02  0.1024455E-08  0.3492460E-07  0.1008878E+00  0.3125155E+01  0.1629815E-08  0.8381903E-07
Zone t="Motion of body    1 in DoF   3",I=   100,F=POINT
  0.1000000E+00  0.6433755E-02 -0.9138659E-15  0.8803909E-08 -0.5094869E-13  0.2052240E-01 -0.2915051E-14
  0.3010101E+00  0.6422208E-02 -0.6029457E-14  0.4350925E-09  0.1362121E-11  0.2048557E-01 -0.1923275E-13
  0.5020202E+00  0.6434715E-02  0.5388430E-12  0.8116280E-08  0.1304291E-12  0.2052547E-01  0.1718803E-11
  0.7030303E+00  0.6444016E-02  0.5099453E-10  0.1821498E-08 -0.2094501E-10  0.2055513E-01  0.1626624E-09
  0.9040404E+00  0.6437914E-02  0.1682138E-09 -0.3219306E-09 -0.3229676E-10  0.2053566E-01  0.5365684E-09
  0.1105051E+01  0.6449356E-02  0.8590595E-09 -0.7321711E-08 -0.1193913E-09  0.2057217E-01  0.2740229E-08
  0.1306061E+01  0.6445001E-02  0.2711712E-08 -0.1203318E-07 -0.2194399E-09  0.2055828E-01  0.8649826E-08
  0.1507071E+01  0.6432880E-02  0.7271745E-08 -0.8497068E-09 -0.6773776E-10  0.2051960E-01  0.2319542E-07
  0.1708081E+01  0.6457946E-02  0.1737636E-07 -0.3884870E-08 -0.4639096E-09  0.2059957E-01  0.5542715E-07
  0.1909091E+01  0.6447534E-02  0.3807518E-07  0.1512290E-07  0.5211520E-09  0.2056636E-01  0.1214523E-06
  0.2110101E+01  0.6464316E-02  0.7650494E-07  0.9268644E-08  0.6133396E-09  0.2061989E-01  0.2440355E-06
  0.2311111E+01  0.6453350E-02  0.1439065E-06  0.9721799E-08  0.4415632E-09  0.2058491E-01  0.4590332E-06
  0.2512121E+01  0.6468366E-02  0.2570485E-06  0.1000975E-07  0.8494592E-09  0.2063281E-01  0.8199335E-06
  0.2713131E+01  0.6483318E-02  0.4394538E-06  0.1673416E-08 -0.3325056E-09  0.2068050E-01  0.1401770E-05
  0.2914141E+01  0.6470364E-02  0.7223474E-06  0.2396905E-08 -0.1176197E-08  0.2063918E-01  0.2304144E-05
  0.3115151E+01  0.6487806E-02  0.1147610E-05  0.1218284E-07  0.2948028E-08  0.2069481E-01  0.3660646E-05
  0.3316161E+01  0.6500961E-02  0.1770635E-05  0.9127417E-09  0.1088608E-08  0.2073678E-01  0.5647973E-05
  0.3517171E+01  0.6512234E-02  0.2661751E-05 -0.3971897E-08 -0.2895092E-08  0.2077273E-01  0.8490458E-05
  0.3718182E+01  0.6492739E-02  0.3909493E-05 -0.3193594E-08 -0.1747878E-08  0.2071054E-01  0.1247051E-04
  0.3919192E+01  0.6525867E-02  0.5624832E-05 -0.1467373E-07 -0.6952178E-08  0.2081623E-01  0.1794210E-04
  0.4120202E+01  0.6550347E-02  0.7942904E-05 -0.3904808E-07 -0.2538178E-07  0.2089431E-01  0.2533629E-04
  0.4321212E+01  0.6586630E-02  0.1102854E-04 -0.5781417E-07 -0.4208732E-07  0.2101004E-01  0.3517886E-04
  0.4522222E+01  0.6596468E-02  0.1507656E-04 -0.2296271E-07 -0.1706610E-07  0.2104142E-01  0.4809123E-04
  0.4723232E+01  0.6562327E-02  0.2031811E-04 -0.5555521E-07 -0.4867866E-07  0.2093252E-01  0.6481073E-04
  0.4924242E+01  0.6579739E-02  0.2702653E-04 -0.8298085E-07 -0.7783547E-07  0.2098806E-01  0.8620926E-04
  0.5125252E+01  0.6619957E-02  0.3551996E-04 -0.8277006E-07 -0.8923280E-07  0.2111635E-01  0.1133016E-03
  0.5326262E+01  0.6648497E-02  0.4616780E-04  0.7256475E-07  0.8174811E-07  0.2120738E-01  0.1472661E-03
  0.5527273E+01  0.6669241E-02  0.5939451E-04  0.1264561E-06  0.1584999E-06  0.2127355E-01  0.1894567E-03
  0.5728283E+01  0.6673167E-02  0.7568792E-04  0.4365359E-07  0.5026232E-07  0.2128607E-01  0.2414295E-03
  0.5929293E+01  0.6663953E-02  0.9559865E-04 -0.4955604E-07 -0.8068946E-07  0.2125669E-01  0.3049407E-03
  0.6130303E+01  0.6675883E-02  0.1197021E-03 -0.4899456E-07 -0.8514235E-07  0.2129474E-01  0.3818259E-03
  0.6331313E+01  0.6704313E-02  0.1486806E-03  0.1816658E-07  0.4272260E-07  0.2138542E-01  0.4742616E-03
  0.6532323E+01  0.6738885E-02  0.1832954E-03 -0.8832300E-07 -0.1852131E-06  0.2149570E-01  0.5846759E-03
  0.6733334E+01  0.6779328E-02  0.2243815E-03  0.2226875E-07  0.5193397E-07  0.2162471E-01  0.7157326E-03
  0.6934343E+01  0.6810058E-02  0.2728905E-03  0.4687273E-07  0.1149110E-06  0.2172273E-01  0.8704665E-03
  0.7135354E+01  0.6821461E-02  0.3298980E-03 -0.5690771E-07 -0.1549815E-06  0.2175910E-01  0.1052310E-02
  0.7336363E+01  0.6820583E-02  0.3965521E-03 -0.2475449E-07 -0.6922346E-07  0.2175632E-01  0.1264922E-02
  0.7537374E+01  0.6824997E-02  0.4738574E-03 -0.1797807E-07 -0.9602809E-07  0.2177038E-01  0.1511511E-02
  0.7738384E+01  0.6857458E-02  0.5627839E-03  0.2840285E-07  0.7943891E-07  0.2187393E-01  0.1795169E-02
  0.7939394E+01  0.6898371E-02  0.6647866E-03 -0.1460435E-07 -0.5374022E-07  0.2200443E-01  0.2120537E-02
  0.8140405E+01  0.6932061E-02  0.7814576E-03 -0.4175870E-08 -0.2048910E-07  0.2211189E-01  0.2492694E-02
  0.8341414E+01  0.6969757E-02  0.9142036E-03  0.7480580E-08  0.2422166E-07  0.2223214E-01  0.2916127E-02
  0.8542424E+01  0.7005485E-02  0.1064723E-02 -0.4088371E-08 -0.2982415E-07  0.2234611E-01  0.3396252E-02
  0.8743435E+01  0.7039857E-02  0.1234731E-02  0.1022561E-07  0.2760498E-07  0.2245574E-01  0.3938547E-02
  0.8944445E+01  0.7068467E-02  0.1426195E-02  0.1457722E-08 -0.1062290E-07  0.2254700E-01  0.4549277E-02
  0.9145455E+01  0.7089696E-02  0.1641195E-02  0.6924744E-08  0.2620800E-07  0.2261473E-01  0.5235084E-02
  0.9346465E+01  0.7095789E-02  0.1882066E-02  0.3886130E-08 -0.6344635E-08  0.2263415E-01  0.6003417E-02
  0.9547475E+01  0.7119388E-02  0.2147492E-02 -0.3219034E-08 -0.5231414E-07  0.2270943E-01  0.6850074E-02
  0.9748485E+01  0.7152236E-02  0.2439880E-02 -0.3534799E-08 -0.4837057E-07  0.2281421E-01  0.7782734E-02
  0.9949495E+01  0.7191098E-02  0.2761221E-02  0.1759774E-07  0.1035223E-06  0.2293817E-01  0.8807748E-02
  0.1015051E+02  0.7230731E-02  0.3113714E-02  0.5688581E-08  0.2968591E-08  0.2306460E-01  0.9932128E-02
  0.1035151E+02  0.7274041E-02  0.3498771E-02  0.1079637E-08  0.6111804E-08  0.2320274E-01  0.1116039E-01
  0.1055252E+02  0.7317340E-02  0.3918572E-02 -0.2206399E-08 -0.3480818E-07  0.2334085E-01  0.1249947E-01
  0.1075354E+02  0.7351292E-02  0.4376623E-02  0.6841885E-08  0.4481990E-07  0.2344916E-01  0.1396056E-01
  0.1095455E+02  0.7383122E-02  0.4873859E-02 -0.1334766E-07 -0.1306762E-06  0.2355069E-01  0.1554664E-01
  0.1115556E+02  0.7409948E-02  0.5412993E-02  0.6177895E-08  0.1711305E-07  0.2363626E-01  0.1726637E-01
  0.1135657E+02  0.7431851E-02  0.5996318E-02  0.1968177E-08  0.1967419E-07  0.2370613E-01  0.1912706E-01
  0.1155758E+02  0.7449730E-02  0.6625855E-02  0.1055612E-07  0.4650792E-07  0.2376315E-01  0.2113516E-01
  0.1175859E+02  0.7462661E-02  0.7302773E-02  0.7524341E-08  0.3474997E-07  0.2380441E-01  0.2329439E-01
  0.1195960E+02  0.7484845E-02  0.8014614E-02 -0.2647661E-08 -0.7177005E-07  0.2387516E-01  0.2556503E-01
  0.1216061E+02  0.7510883E-02  0.8765923E-02  0.7045837E-08  0.1327135E-07  0.2395821E-01  0.2796155E-01
  0.1236162E+02  0.7532497E-02  0.9562280E-02  0.2636895E-08 -0.7334165E-08  0.2402718E-01  0.3050178E-01
  0.1256263E+02  0.7553357E-02  0.1040285E-01  0.3558450E-08 -0.1490116E-07  0.2409370E-01  0.3318302E-01
  0.1276364E+02  0.7570546E-02  0.1129051E-01  0.9777557E-08  0.8149073E-09  0.2414853E-01  0.3601449E-01
  0.1296465E+02  0.7586886E-02  0.1222370E-01 -0.2370573E-08 -0.5902257E-07  0.2420066E-01  0.3899118E-01
  0.1316566E+02  0.7601522E-02  0.1320353E-01  0.5163930E-08  0.2398156E-07  0.2424735E-01  0.4211661E-01
  0.1336667E+02  0.7612286E-02  0.1423267E-01 -0.5016599E-08 -0.7811468E-07  0.2428168E-01  0.4539939E-01
  0.1356768E+02  0.7620471E-02  0.1530795E-01  0.3775350E-08 -0.4423782E-07  0.2430779E-01  0.4882931E-01
  0.1376869E+02  0.7629838E-02  0.1641056E-01  0.1271643E-07  0.8288771E-07  0.2433767E-01  0.5234642E-01
  0.1396970E+02  0.7637923E-02  0.1754602E-01  0.6933402E-08 -0.1257285E-07  0.2436345E-01  0.5596834E-01
  0.1417071E+02  0.7640827E-02  0.1872140E-01  0.7820877E-08  0.5122274E-07  0.2437272E-01  0.5971755E-01
  0.1437172E+02  0.7640492E-02  0.1993410E-01  0.5637812E-08  0.7520430E-07  0.2437165E-01  0.6358583E-01
  0.1457273E+02  0.7638517E-02  0.2118030E-01  0.6390859E-10 -0.3352761E-07  0.2436536E-01  0.6756095E-01
  0.1477374E+02  0.7632882E-02  0.2246412E-01  0.3278031E-08 -0.1213048E-06  0.2434738E-01  0.7165612E-01
  0.1497475E+02  0.7624559E-02  0.2378314E-01  0.7463144E-08  0.4703179E-07  0.2432084E-01  0.7586347E-01
  0.1517576E+02  0.7614989E-02  0.2512858E-01 -0.4602682E-08 -0.8987263E-07  0.2429031E-01  0.8015517E-01
  0.1537677E+02  0.7603469E-02  0.2648527E-01  0.3452311E-08 -0.4353933E-07  0.2425355E-01  0.8448277E-01