VARIABLES="w (rad/s)"
"abs(F   1   1)" "angle(F   1   1)"
"abs(F   1   2)" "angle(F   1   2)"
"abs(F   1   3)" "angle(F   1   3)"
Zone t="Diffraction force - beta =   0.000 deg",I=    32,F=POINT
  0.1000000E+00  0.4770950E+02 -0.1570796E+01  0.2888240E+03 -0.3135714E+01  0.2081660E+03 -0.1570796E+01
  0.2000000E+00  0.1896385E+03 -0.1570795E+01  0.1174588E+04 -0.3118790E+01  0.8273672E+03 -0.1570795E+01
  0.3000000E+00  0.4231365E+03 -0.1570785E+01  0.2687490E+04 -0.3092316E+01  0.1845563E+04 -0.1570785E+01
  0.4000000E+00  0.7405365E+03 -0.1570734E+01  0.4851233E+04 -0.3058175E+01  0.3229974E+04 -0.1570731E+01
  0.5000000E+00  0.1133977E+04 -0.1570565E+01  0.7657456E+04 -0.3018120E+01  0.4946457E+04 -0.1570553E+01
  0.6000001E+00  0.1592488E+04 -0.1570124E+01  0.1107408E+05 -0.2973888E+01  0.6947874E+04 -0.1570091E+01
  0.7000000E+00  0.2101522E+04 -0.1569161E+01  0.1505904E+05 -0.2927356E+01  0.9170023E+04 -0.1569078E+01
  0.8000001E+00  0.2646931E+04 -0.1567305E+01  0.1952057E+05 -0.2879735E+01  0.1154814E+05 -0.1567123E+01
  0.9000000E+00  0.3209512E+04 -0.1564070E+01  0.2436406E+05 -0.2832206E+01  0.1400573E+05 -0.1563712E+01
  0.1000000E+01  0.3764475E+04 -0.1558860E+01  0.2949807E+05 -0.2786015E+01  0.1641908E+05 -0.1558200E+01
  0.1100000E+01  0.4281579E+04 -0.1551032E+01  0.3480658E+05 -0.2741649E+01  0.1866486E+05 -0.1549897E+01
  0.1200000E+01  0.4734495E+04 -0.1540013E+01  0.4018282E+05 -0.2699631E+01  0.2061787E+05 -0.1538156E+01
  0.1300000E+01  0.5067462E+04 -0.1525265E+01  0.4555731E+05 -0.2660921E+01  0.2201945E+05 -0.1522327E+01
  0.1400000E+01  0.5242110E+04 -0.1506740E+01  0.5080959E+05 -0.2624899E+01  0.2270523E+05 -0.1502256E+01
  0.1500000E+01  0.5204327E+04 -0.1484807E+01  0.5586834E+05 -0.2592113E+01  0.2241585E+05 -0.1478079E+01
  0.1600000E+01  0.4888237E+04 -0.1460546E+01  0.6066949E+05 -0.2563079E+01  0.2084187E+05 -0.1450435E+01
  0.1700000E+01  0.4245317E+04 -0.1437188E+01  0.6513476E+05 -0.2537395E+01  0.1776024E+05 -0.1421771E+01
  0.1800000E+01  0.3236982E+04 -0.1423664E+01  0.6919329E+05 -0.2514922E+01  0.1298352E+05 -0.1399150E+01
  0.1900000E+01  0.1842638E+04 -0.1460171E+01  0.7278015E+05 -0.2495345E+01  0.6394982E+04 -0.1421229E+01
  0.2000000E+01  0.3241911E+03 -0.2802152E+01  0.7583723E+05 -0.2478781E+01  0.2297996E+04  0.2245148E+01
  0.2100000E+01  0.2216678E+04  0.2088779E+01  0.7831344E+05 -0.2464890E+01  0.1248465E+05  0.1997247E+01
  0.2200000E+01  0.4750864E+04  0.2050763E+01  0.8015883E+05 -0.2453702E+01  0.2443087E+05  0.2008101E+01
  0.2300000E+01  0.7591442E+04  0.2063470E+01  0.8132291E+05 -0.2445262E+01  0.3780086E+05  0.2036524E+01
  0.2400000E+01  0.1066504E+05  0.2086796E+01  0.8177112E+05 -0.2439460E+01  0.5227575E+05  0.2068075E+01
  0.2500000E+01  0.1389408E+05  0.2112155E+01  0.8147062E+05 -0.2436244E+01  0.6750474E+05  0.2098816E+01
  0.2600000E+01  0.1720092E+05  0.2136618E+01  0.8039445E+05 -0.2435776E+01  0.8311845E+05  0.2127376E+01
  0.2700000E+01  0.2050447E+05  0.2158662E+01  0.7851509E+05 -0.2438211E+01  0.9873784E+05  0.2152804E+01
  0.2800000E+01  0.2372250E+05  0.2178095E+01  0.7584452E+05 -0.2443688E+01  0.1139628E+06  0.2175256E+01
  0.2900000E+01  0.2677007E+05  0.2194612E+01  0.7239620E+05 -0.2452438E+01  0.1283911E+06  0.2194551E+01
  0.3000000E+01  0.2957112E+05  0.2207922E+01  0.6817545E+05 -0.2465161E+01  0.1416440E+06  0.2210532E+01
  0.3100000E+01  0.3204135E+05  0.2217973E+01  0.6322274E+05 -0.2482498E+01  0.1533150E+06  0.2223184E+01
  0.3200000E+01  0.3411456E+05  0.2225066E+01  0.5761225E+05 -0.2505765E+01  0.1630648E+06  0.2232932E+01
