VARIABLES="w (rad/s)"
"abs(F   1   1)" "angle(F   1   1)"
"abs(F   1   2)" "angle(F   1   2)"
"abs(F   1   3)" "angle(F   1   3)"
Zone t="Diffraction force - beta =   0.000 deg",I=    32,F=POINT
  0.1000000E+00  0.1711331E+03 -0.1570800E+01  0.1812989E+06 -0.9365021E-05  0.7816662E+03 -0.1570796E+01
  0.2000000E+00  0.6825701E+03 -0.1570796E+01  0.1800418E+06 -0.1487516E-03  0.3118355E+04 -0.1570796E+01
  0.3000000E+00  0.1529362E+04 -0.1570794E+01  0.1779099E+06 -0.7440687E-03  0.6988932E+04 -0.1570793E+01
  0.4000000E+00  0.2699974E+04 -0.1570779E+01  0.1748829E+06 -0.2311314E-02  0.1234523E+05 -0.1570780E+01
  0.5000000E+00  0.4181058E+04 -0.1570733E+01  0.1709823E+06 -0.5515717E-02  0.1913111E+05 -0.1570733E+01
  0.6000001E+00  0.5954474E+04 -0.1570616E+01  0.1662645E+06 -0.1111795E-01  0.2727033E+05 -0.1570616E+01
  0.7000000E+00  0.7996724E+04 -0.1570367E+01  0.1608064E+06 -0.1991082E-01  0.3666190E+05 -0.1570366E+01
  0.8000001E+00  0.1028280E+05 -0.1569897E+01  0.1547453E+06 -0.3266201E-01  0.4719608E+05 -0.1569897E+01
  0.9000000E+00  0.1278067E+05 -0.1569107E+01  0.1482265E+06 -0.5006754E-01  0.5874206E+05 -0.1569107E+01
  0.1000000E+01  0.1545052E+05 -0.1567888E+01  0.1413874E+06 -0.7269580E-01  0.7111159E+05 -0.1567888E+01
  0.1100000E+01  0.1824476E+05 -0.1566158E+01  0.1343869E+06 -0.1010188E+00  0.8410597E+05 -0.1566158E+01
  0.1200000E+01  0.2111708E+05 -0.1563895E+01  0.1273623E+06 -0.1353566E+00  0.9751130E+05 -0.1563896E+01
  0.1300000E+01  0.2398909E+05 -0.1561181E+01  0.1203890E+06 -0.1758760E+00  0.1109671E+06 -0.1561182E+01
  0.1400000E+01  0.2679696E+05 -0.1558273E+01  0.1136024E+06 -0.2227876E+00  0.1241925E+06 -0.1558275E+01
  0.1500000E+01  0.2945875E+05 -0.1555623E+01  0.1070507E+06 -0.2760444E+00  0.1367991E+06 -0.1555625E+01
  0.1600000E+01  0.3187917E+05 -0.1553924E+01  0.1007497E+06 -0.3355200E+00  0.1483390E+06 -0.1553925E+01
  0.1700000E+01  0.3398049E+05 -0.1554153E+01  0.9474548E+05 -0.4012328E+00  0.1584506E+06 -0.1554153E+01
  0.1800000E+01  0.3569688E+05 -0.1557502E+01  0.8905901E+05 -0.4730867E+00  0.1668179E+06 -0.1557502E+01
  0.1900000E+01  0.3698048E+05 -0.1565295E+01  0.8371097E+05 -0.5510257E+00  0.1732054E+06 -0.1565294E+01
  0.2000000E+01  0.3780829E+05 -0.1578882E+01  0.7868443E+05 -0.6348661E+00  0.1774869E+06 -0.1578880E+01
  0.2100000E+01  0.3819130E+05 -0.1599538E+01  0.7398774E+05 -0.7246027E+00  0.1797026E+06 -0.1599537E+01
  0.2200000E+01  0.3816145E+05 -0.1628313E+01  0.6960168E+05 -0.8200964E+00  0.1799850E+06 -0.1628313E+01
  0.2300000E+01  0.3777057E+05 -0.1666004E+01  0.6550311E+05 -0.9211777E+00  0.1785611E+06 -0.1666007E+01
  0.2400000E+01  0.3708309E+05 -0.1713179E+01  0.6168168E+05 -0.1027863E+01  0.1757291E+06 -0.1713185E+01
  0.2500000E+01  0.3616608E+05 -0.1770078E+01  0.5812635E+05 -0.1140074E+01  0.1717888E+06 -0.1770091E+01
  0.2600000E+01  0.3508035E+05 -0.1836792E+01  0.5481213E+05 -0.1257753E+01  0.1670277E+06 -0.1836814E+01
  0.2700000E+01  0.3387597E+05 -0.1913123E+01  0.5171522E+05 -0.1380697E+01  0.1616723E+06 -0.1913164E+01
  0.2800000E+01  0.3260329E+05 -0.1998972E+01  0.4883157E+05 -0.1509121E+01  0.1559666E+06 -0.1999027E+01
  0.2900000E+01  0.3130000E+05 -0.2093929E+01  0.4615576E+05 -0.1642953E+01  0.1500793E+06 -0.2094025E+01
  0.3000000E+01  0.2998671E+05 -0.2197703E+01  0.4364941E+05 -0.1782075E+01  0.1441151E+06 -0.2197831E+01
  0.3100000E+01  0.2868284E+05 -0.2309777E+01  0.4130163E+05 -0.1926397E+01  0.1381602E+06 -0.2309969E+01
  0.3200000E+01  0.2740976E+05 -0.2430189E+01  0.3910473E+05 -0.2076366E+01  0.1323305E+06 -0.2430413E+01
