VARIABLES="w (rad/s)"
"abs(F   1   1)" "angle(F   1   1)"
"abs(F   1   2)" "angle(F   1   2)"
"abs(F   1   3)" "angle(F   1   3)"
Zone t="FKforce - beta =   0.000",I=    32,F=POINT
  0.1000000E+00  0.6028210E+03 -0.1570798E+01  0.4312755E+06 -0.2474742E-11  0.2748727E+04 -0.1570795E+01
  0.2000000E+00  0.2404395E+04 -0.1570795E+01  0.4294628E+06 -0.8343812E-10  0.1096732E+05 -0.1570798E+01
  0.3000000E+00  0.5383960E+04 -0.1570797E+01  0.4264334E+06 -0.1747185E-12  0.2457238E+05 -0.1570796E+01
  0.4000000E+00  0.9506563E+04 -0.1570796E+01  0.4221764E+06  0.1200066E-11  0.4342268E+05 -0.1570796E+01
  0.5000000E+00  0.1472262E+05 -0.1570796E+01  0.4166770E+06  0.4771710E-09  0.6731565E+05 -0.1570796E+01
  0.6000001E+00  0.2096720E+05 -0.1570796E+01  0.4099171E+06 -0.5954400E-10  0.9598296E+05 -0.1570796E+01
  0.7000000E+00  0.2815926E+05 -0.1570796E+01  0.4018802E+06  0.7584802E-09  0.1290856E+06 -0.1570796E+01
  0.8000001E+00  0.3620091E+05 -0.1570796E+01  0.3925411E+06  0.1224614E-09  0.1662065E+06 -0.1570796E+01
  0.9000000E+00  0.4497652E+05 -0.1570796E+01  0.3818860E+06 -0.1070394E-08  0.2068470E+06 -0.1570796E+01
  0.1000000E+01  0.5435169E+05 -0.1570796E+01  0.3698965E+06  0.9088224E-10  0.2504177E+06 -0.1570796E+01
  0.1100000E+01  0.6417320E+05 -0.1570796E+01  0.3565648E+06 -0.2729949E-08  0.2962366E+06 -0.1570796E+01
  0.1200000E+01  0.7426844E+05 -0.1570796E+01  0.3418902E+06  0.4223526E-08  0.3435213E+06 -0.1570796E+01
  0.1300000E+01  0.8444543E+05 -0.1570796E+01  0.3258835E+06 -0.8596380E-11  0.3913931E+06 -0.1570796E+01
  0.1400000E+01  0.9449426E+05 -0.1570796E+01  0.3085706E+06 -0.3337097E-08  0.4388742E+06 -0.1570796E+01
  0.1500000E+01  0.1041879E+06 -0.1570796E+01  0.2899976E+06  0.9799906E-09  0.4848972E+06 -0.1570796E+01
  0.1600000E+01  0.1132858E+06 -0.1570796E+01  0.2702326E+06  0.4413784E-08  0.5283145E+06 -0.1570796E+01
  0.1700000E+01  0.1215365E+06 -0.1570796E+01  0.2493712E+06  0.2989420E-08  0.5679139E+06 -0.1570796E+01
  0.1800000E+01  0.1286839E+06 -0.1570796E+01  0.2275384E+06 -0.3116731E-08  0.6024500E+06 -0.1570796E+01
  0.1900000E+01  0.1344725E+06 -0.1570796E+01  0.2048942E+06 -0.9251051E-08  0.6306644E+06 -0.1570796E+01
  0.2000000E+01  0.1386570E+06 -0.1570796E+01  0.1816340E+06  0.1051418E-08  0.6513335E+06 -0.1570796E+01
  0.2100000E+01  0.1410100E+06 -0.1570796E+01  0.1579895E+06 -0.1042283E-07  0.6633149E+06 -0.1570796E+01
  0.2200000E+01  0.1413341E+06 -0.1570796E+01  0.1342311E+06 -0.3074213E-07  0.6655976E+06 -0.1570796E+01
  0.2300000E+01  0.1394729E+06 -0.1570796E+01  0.1106630E+06 -0.4938554E-08  0.6573686E+06 -0.1570796E+01
  0.2400000E+01  0.1353238E+06 -0.1570796E+01  0.8762002E+05 -0.1024612E-07  0.6380662E+06 -0.1570796E+01
  0.2500000E+01  0.1288502E+06 -0.1570796E+01  0.6546157E+05 -0.1110117E-07  0.6074568E+06 -0.1570796E+01
  0.2600000E+01  0.1200928E+06 -0.1570796E+01  0.4456059E+05  0.2540119E-08  0.5656821E+06 -0.1570796E+01
  0.2700000E+01  0.1091802E+06 -0.1570796E+01  0.2529219E+05 -0.8736311E-07  0.5133225E+06 -0.1570796E+01
  0.2800000E+01  0.9633442E+05 -0.1570796E+01  0.8018860E+04  0.2199627E-06  0.4514283E+06 -0.1570796E+01
  0.2900000E+01  0.8187531E+05 -0.1570796E+01  0.6927576E+04 -0.3141593E+01  0.3815386E+06 -0.1570796E+01
  0.3000000E+01  0.6621706E+05 -0.1570796E+01  0.1926418E+05 -0.3141593E+01  0.3056709E+06 -0.1570796E+01
  0.3100000E+01  0.4985994E+05 -0.1570796E+01  0.2877689E+05 -0.3141593E+01  0.2262860E+06 -0.1570796E+01
  0.3200000E+01  0.3337459E+05 -0.1570796E+01  0.3533921E+05 -0.3141593E+01  0.1462061E+06 -0.1570796E+01
