 VARIABLES="Time (s)"
"AddedMass    1" "IRF    1"
"AddedMass    2" "IRF    2"
"AddedMass    3" "IRF    3"
Zone t="DoF    1",I=   160,F=POINT
  0.0000000E+00  0.1985151E+05  0.3262631E+05 -0.1748910E-02 -0.1111382E-01  0.8503152E+05  0.1539712E+06
  0.1000000E+00  0.1985151E+05  0.3169042E+05 -0.1748910E-02 -0.1091859E-01  0.8503152E+05  0.1495299E+06
  0.2000000E+00  0.1985151E+05  0.2894543E+05 -0.1748910E-02 -0.1034007E-01  0.8503152E+05  0.1365045E+06
  0.3000000E+00  0.1985151E+05  0.2457470E+05 -0.1748910E-02 -0.9399573E-02  0.8503152E+05  0.1157686E+06
  0.4000000E+00  0.1985151E+05  0.1886873E+05 -0.1748910E-02 -0.8131915E-02  0.8503152E+05  0.8870570E+05
  0.5000000E+00  0.1985151E+05  0.1220378E+05 -0.1748910E-02 -0.6584367E-02  0.8503152E+05  0.5710743E+05
  0.6000000E+00  0.1985151E+05  0.5014261E+04 -0.1748910E-02 -0.4815184E-02  0.8503152E+05  0.2304182E+05
  0.7000000E+00  0.1985151E+05 -0.2238731E+04 -0.1748910E-02 -0.2891716E-02  0.8503152E+05 -0.1129727E+05
  0.8000000E+00  0.1985151E+05 -0.9100556E+04 -0.1748910E-02 -0.8881071E-03  0.8503152E+05 -0.4374797E+05
  0.9000000E+00  0.1985151E+05 -0.1515502E+05 -0.1748910E-02  0.1117345E-02  0.8503152E+05 -0.7233321E+05
  0.1000000E+01  0.1985151E+05 -0.2005299E+05 -0.1748910E-02  0.3045147E-02  0.8503152E+05 -0.9539688E+05
  0.1100000E+01  0.1985151E+05 -0.2353531E+05 -0.1748910E-02  0.4817787E-02  0.8503152E+05 -0.1117131E+06
  0.1200000E+01  0.1985151E+05 -0.2544853E+05 -0.1748910E-02  0.6363004E-02  0.8503152E+05 -0.1205609E+06
  0.1300000E+01  0.1985151E+05 -0.2575223E+05 -0.1748910E-02  0.7617030E-02  0.8503152E+05 -0.1217584E+06
  0.1400000E+01  0.1985151E+05 -0.2451778E+05 -0.1748910E-02  0.8527646E-02  0.8503152E+05 -0.1156566E+06
  0.1500000E+01  0.1985151E+05 -0.2191866E+05 -0.1748910E-02  0.9056870E-02  0.8503152E+05 -0.1030926E+06
  0.1600000E+01  0.1985151E+05 -0.1821340E+05 -0.1748910E-02  0.9183117E-02  0.8503152E+05 -0.8530745E+05
  0.1700000E+01  0.1985151E+05 -0.1372284E+05 -0.1748910E-02  0.8902669E-02  0.8503152E+05 -0.6383720E+05
  0.1800000E+01  0.1985151E+05 -0.8803462E+04 -0.1748910E-02  0.8230336E-02  0.8503152E+05 -0.4038518E+05
  0.1900000E+01  0.1985151E+05 -0.3819131E+04 -0.1748910E-02  0.7199196E-02  0.8503152E+05 -0.1668694E+05
  0.2000000E+01  0.1985151E+05  0.8863783E+03 -0.1748910E-02  0.5859368E-02  0.8503152E+05  0.5621125E+04
  0.2100000E+01  0.1985151E+05  0.5014091E+04 -0.1748910E-02  0.4275857E-02  0.8503152E+05  0.2511937E+05
  0.2200000E+01  0.1985151E+05  0.8329743E+04 -0.1748910E-02  0.2525533E-02  0.8503152E+05  0.4069978E+05
  0.2300000E+01  0.1985151E+05  0.1067769E+05 -0.1748910E-02  0.6933382E-03  0.8503152E+05  0.5163177E+05
  0.2400000E+01  0.1985151E+05  0.1198772E+05 -0.1748910E-02 -0.1132006E-02  0.8503152E+05  0.5759407E+05
  0.2500000E+01  0.1985151E+05  0.1227477E+05 -0.1748910E-02 -0.2862610E-02  0.8503152E+05  0.5867245E+05
  0.2600000E+01  0.1985151E+05  0.1163172E+05 -0.1748910E-02 -0.4416085E-02  0.8503152E+05  0.5532470E+05
  0.2700000E+01  0.1985151E+05  0.1021637E+05 -0.1748910E-02 -0.5719928E-02  0.8503152E+05  0.4831735E+05
  0.2800000E+01  0.1985151E+05  0.8233814E+04 -0.1748910E-02 -0.6715413E-02  0.8503152E+05  0.3864084E+05
  0.2900000E+01  0.1985151E+05  0.5915976E+04 -0.1748910E-02 -0.7360697E-02  0.8503152E+05  0.2741119E+05
  0.3000000E+01  0.1985151E+05  0.3500252E+04 -0.1748910E-02 -0.7632925E-02  0.8503152E+05  0.1576749E+05
  0.3100000E+01  0.1985151E+05  0.1209004E+04 -0.1748910E-02 -0.7529254E-02  0.8503152E+05  0.4773687E+04
  0.3200000E+01  0.1985151E+05 -0.7683066E+03 -0.1748910E-02 -0.7066620E-02  0.8503152E+05 -0.4666755E+04
  0.3300000E+01  0.1985151E+05 -0.2289023E+04 -0.1748910E-02 -0.6280368E-02  0.8503152E+05 -0.1187702E+05
  0.3400000E+01  0.1985151E+05 -0.3266144E+04 -0.1748910E-02 -0.5221745E-02  0.8503152E+05 -0.1644885E+05
  0.3500000E+01  0.1985151E+05 -0.3671703E+04 -0.1748910E-02 -0.3954494E-02  0.8503152E+05 -0.1825803E+05
  0.3600000E+01  0.1985151E+05 -0.3534682E+04 -0.1748910E-02 -0.2550718E-02  0.8503152E+05 -0.1745379E+05
  0.3700000E+01  0.1985151E+05 -0.2933914E+04 -0.1748910E-02 -0.1086343E-02  0.8503152E+05 -0.1442403E+05
  0.3800000E+01  0.1985151E+05 -0.1986913E+04 -0.1748910E-02  0.3635412E-03  0.8503152E+05 -0.9741143E+04
  0.3900000E+01  0.1985151E+05 -0.8358423E+03 -0.1748910E-02  0.1729139E-02  0.8503152E+05 -0.4094265E+04
  0.4000000E+01  0.1985151E+05  0.3678759E+03 -0.1748910E-02  0.2949887E-02  0.8503152E+05  0.1784859E+04
  0.4100000E+01  0.1985151E+05  0.1478939E+04 -0.1748910E-02  0.3977670E-02  0.8503152E+05  0.7195892E+04
  0.4200000E+01  0.1985151E+05  0.2371966E+04 -0.1748910E-02  0.4779057E-02  0.8503152E+05  0.1153616E+05
  0.4300000E+01  0.1985151E+05  0.2952636E+04 -0.1748910E-02  0.5336451E-02  0.8503152E+05  0.1435386E+05
  0.4400000E+01  0.1985151E+05  0.3165214E+04 -0.1748910E-02  0.5648138E-02  0.8503152E+05  0.1538405E+05
  0.4500000E+01  0.1985151E+05  0.2995950E+04 -0.1748910E-02  0.5727219E-02  0.8503152E+05  0.1456444E+05
  0.4600000E+01  0.1985151E+05  0.2472177E+04 -0.1748910E-02  0.5599590E-02  0.8503152E+05  0.1203079E+05
  0.4700000E+01  0.1985151E+05  0.1657521E+04 -0.1748910E-02  0.5301111E-02  0.8503152E+05  0.8093339E+04
  0.4800000E+01  0.1985151E+05  0.6437634E+03 -0.1748910E-02  0.4874277E-02  0.8503152E+05  0.3197365E+04
  0.4900000E+01  0.1985151E+05 -0.4596761E+03 -0.1748910E-02  0.4364562E-02  0.8503152E+05 -0.2127671E+04
  0.5000000E+01  0.1985151E+05 -0.1537528E+04 -0.1748910E-02  0.3816829E-02  0.8503152E+05 -0.7325074E+04
  0.5100000E+01  0.1985151E+05 -0.2480479E+04 -0.1748910E-02  0.3271986E-02  0.8503152E+05 -0.1186778E+05
  0.5200000E+01  0.1985151E+05 -0.3195950E+04 -0.1748910E-02  0.2764211E-02  0.8503152E+05 -0.1531016E+05
  0.5300000E+01  0.1985151E+05 -0.3616734E+04 -0.1748910E-02  0.2318863E-02  0.8503152E+05 -0.1732955E+05
  0.5400000E+01  0.1985151E+05 -0.3706890E+04 -0.1748910E-02  0.1951279E-02  0.8503152E+05 -0.1775439E+05
  0.5500000E+01  0.1985151E+05 -0.3464200E+04 -0.1748910E-02  0.1666433E-02  0.8503152E+05 -0.1657582E+05
  0.5600000E+01  0.1985151E+05 -0.2919336E+04 -0.1748910E-02  0.1459518E-02  0.8503152E+05 -0.1394349E+05
  0.5700000E+01  0.1985151E+05 -0.2131740E+04 -0.1748910E-02  0.1317298E-02  0.8503152E+05 -0.1014538E+05
  0.5800000E+01  0.1985151E+05 -0.1182866E+04 -0.1748910E-02  0.1220105E-02  0.8503152E+05 -0.5575189E+04
  0.5900000E+01  0.1985151E+05 -0.1674660E+03 -0.1748910E-02  0.1144274E-02  0.8503152E+05 -0.6901058E+03
  0.6000000E+01  0.1985151E+05  0.8161705E+03 -0.1748910E-02  0.1064804E-02  0.8503152E+05  0.4036196E+04
  0.6100000E+01  0.1985151E+05  0.1675913E+04 -0.1748910E-02  0.9579856E-03  0.8503152E+05  0.8160334E+04
  0.6200000E+01  0.1985151E+05  0.2334656E+04 -0.1748910E-02  0.8037895E-03  0.8503152E+05  0.1131185E+05
  0.6300000E+01  0.1985151E+05  0.2737337E+04 -0.1748910E-02  0.5878121E-03  0.8503152E+05  0.1322687E+05
  0.6400000E+01  0.1985151E+05  0.2855652E+04 -0.1748910E-02  0.3026308E-03  0.8503152E+05  0.1377079E+05
  0.6500000E+01  0.1985151E+05  0.2689929E+04 -0.1748910E-02 -0.5153987E-04  0.8503152E+05  0.1294701E+05
  0.6600000E+01  0.1985151E+05  0.2268147E+04 -0.1748910E-02 -0.4668710E-03  0.8503152E+05  0.1089206E+05
  0.6700000E+01  0.1985151E+05  0.1642295E+04 -0.1748910E-02 -0.9286831E-03  0.8503152E+05  0.7857972E+04
  0.6800000E+01  0.1985151E+05  0.8825035E+03 -0.1748910E-02 -0.1416750E-02  0.8503152E+05  0.4183775E+04
  0.6900000E+01  0.1985151E+05  0.6952180E+02 -0.1748910E-02 -0.1907107E-02  0.8503152E+05  0.2592068E+03
  0.7000000E+01  0.1985151E+05 -0.7135698E+03 -0.1748910E-02 -0.2374121E-02  0.8503152E+05 -0.3515275E+04
  0.7100000E+01  0.1985151E+05 -0.1389578E+04 -0.1748910E-02 -0.2792666E-02  0.8503152E+05 -0.6768079E+04
  0.7200000E+01  0.1985151E+05 -0.1894675E+04 -0.1748910E-02 -0.3140204E-02  0.8503152E+05 -0.9192481E+04
  0.7300000E+01  0.1985151E+05 -0.2184207E+04 -0.1748910E-02 -0.3398584E-02  0.8503152E+05 -0.1057450E+05
  0.7400000E+01  0.1985151E+05 -0.2236543E+04 -0.1748910E-02 -0.3555422E-02  0.8503152E+05 -0.1081135E+05
  0.7500000E+01  0.1985151E+05 -0.2054470E+04 -0.1748910E-02 -0.3604982E-02  0.8503152E+05 -0.9917966E+04
  0.7600000E+01  0.1985151E+05 -0.1664134E+04 -0.1748910E-02 -0.3548434E-02  0.8503152E+05 -0.8021833E+04
  0.7700000E+01  0.1985151E+05 -0.1111721E+04 -0.1748910E-02 -0.3393555E-02  0.8503152E+05 -0.5346817E+04
  0.7800000E+01  0.1985151E+05 -0.4582643E+03 -0.1748910E-02 -0.3153885E-02  0.8503152E+05 -0.2188033E+04
  0.7900000E+01  0.1985151E+05  0.2269237E+03 -0.1748910E-02 -0.2847459E-02  0.8503152E+05  0.1119870E+04
  0.8000000E+01  0.1985151E+05  0.8733472E+03 -0.1748910E-02 -0.2495189E-02  0.8503152E+05  0.4236930E+04
  0.8100000E+01  0.1985151E+05  0.1416479E+04 -0.1748910E-02 -0.2119129E-02  0.8503152E+05  0.6852379E+04
  0.8200000E+01  0.1985151E+05  0.1803947E+04 -0.1748910E-02 -0.1740706E-02  0.8503152E+05  0.8714366E+04
  0.8300000E+01  0.1985151E+05  0.2000494E+04 -0.1748910E-02 -0.1379108E-02  0.8503152E+05  0.9653824E+04
  0.8400001E+01  0.1985151E+05  0.1990981E+04 -0.1748910E-02 -0.1049986E-02  0.8503152E+05  0.9598815E+04
  0.8500000E+01  0.1985151E+05  0.1781384E+04 -0.1748910E-02 -0.7645016E-03  0.8503152E+05  0.8579260E+04
  0.8600000E+01  0.1985151E+05  0.1397603E+04 -0.1748910E-02 -0.5288493E-03  0.8503152E+05  0.6721048E+04
  0.8700000E+01  0.1985151E+05  0.8823671E+03 -0.1748910E-02 -0.3442679E-03  0.8503152E+05  0.4231037E+04
  0.8800000E+01  0.1985151E+05  0.2904887E+03 -0.1748910E-02 -0.2074563E-03  0.8503152E+05  0.1374109E+04
  0.8900001E+01  0.1985151E+05 -0.3168633E+03 -0.1748910E-02 -0.1114335E-03  0.8503152E+05 -0.1554520E+04
  0.9000000E+01  0.1985151E+05 -0.8785406E+03 -0.1748910E-02 -0.4662866E-04  0.8503152E+05 -0.4260033E+04
  0.9100000E+01  0.1985151E+05 -0.1339442E+04 -0.1748910E-02 -0.2190287E-05  0.8503152E+05 -0.6477089E+04
  0.9200000E+01  0.1985151E+05 -0.1655894E+04 -0.1748910E-02  0.3271101E-04  0.8503152E+05 -0.7995692E+04
  0.9300000E+01  0.1985151E+05 -0.1799768E+04 -0.1748910E-02  0.6761902E-04  0.8503152E+05 -0.8680977E+04
  0.9400001E+01  0.1985151E+05 -0.1760847E+04 -0.1748910E-02  0.1097916E-03  0.8503152E+05 -0.8484556E+04
  0.9500000E+01  0.1985151E+05 -0.1547464E+04 -0.1748910E-02  0.1634530E-03  0.8503152E+05 -0.7447495E+04
  0.9600000E+01  0.1985151E+05 -0.1185184E+04 -0.1748910E-02  0.2294530E-03  0.8503152E+05 -0.5693854E+04
  0.9700000E+01  0.1985151E+05 -0.7138399E+03 -0.1748910E-02  0.3052579E-03  0.8503152E+05 -0.3416350E+04
  0.9800000E+01  0.1985151E+05 -0.1832038E+03 -0.1748910E-02  0.3853743E-03  0.8503152E+05 -0.8553981E+03
  0.9900001E+01  0.1985151E+05  0.3522116E+03 -0.1748910E-02  0.4620458E-03  0.8503152E+05  0.1725977E+04
  0.1000000E+02  0.1985151E+05  0.8387155E+03 -0.1748910E-02  0.5262419E-03  0.8503152E+05  0.4068982E+04
  0.1010000E+02  0.1985151E+05  0.1228825E+04 -0.1748910E-02  0.5687626E-03  0.8503152E+05  0.5944997E+04
  0.1020000E+02  0.1985151E+05  0.1485798E+04 -0.1748910E-02  0.5813828E-03  0.8503152E+05  0.7177407E+04
  0.1030000E+02  0.1985151E+05  0.1587120E+04 -0.1748910E-02  0.5579178E-03  0.8503152E+05  0.7658333E+04
  0.1040000E+02  0.1985151E+05  0.1526366E+04 -0.1748910E-02  0.4951091E-03  0.8503152E+05  0.7357545E+04
  0.1050000E+02  0.1985151E+05  0.1313529E+04 -0.1748910E-02  0.3931986E-03  0.8503152E+05  0.6324006E+04
  0.1060000E+02  0.1985151E+05  0.9735613E+03 -0.1748910E-02  0.2562313E-03  0.8503152E+05  0.4678704E+04
  0.1070000E+02  0.1985151E+05  0.5436064E+03 -0.1748910E-02  0.9191967E-04  0.8503152E+05  0.2601282E+04
  0.1080000E+02  0.1985151E+05  0.6893320E+02 -0.1748910E-02 -0.8878559E-04  0.8503152E+05  0.3103652E+03
  0.1090000E+02  0.1985151E+05 -0.4017122E+03 -0.1748910E-02 -0.2725005E-03  0.8503152E+05 -0.1958871E+04
  0.1100000E+02  0.1985151E+05 -0.8211215E+03 -0.1748910E-02 -0.4444222E-03  0.8503152E+05 -0.3978892E+04
  0.1110000E+02  0.1985151E+05 -0.1148313E+04 -0.1748910E-02 -0.5895321E-03  0.8503152E+05 -0.5552396E+04
  0.1120000E+02  0.1985151E+05 -0.1352463E+04 -0.1748910E-02 -0.6938337E-03  0.8503152E+05 -0.6531230E+04
  0.1130000E+02  0.1985151E+05 -0.1415810E+04 -0.1748910E-02 -0.7455971E-03  0.8503152E+05 -0.6830354E+04
  0.1140000E+02  0.1985151E+05 -0.1335097E+04 -0.1748910E-02 -0.7363457E-03  0.8503152E+05 -0.6434730E+04
  0.1150000E+02  0.1985151E+05 -0.1121638E+04 -0.1748910E-02 -0.6616920E-03  0.8503152E+05 -0.5399547E+04
  0.1160000E+02  0.1985151E+05 -0.7997800E+03 -0.1748910E-02 -0.5217813E-03  0.8503152E+05 -0.3842787E+04
  0.1170000E+02  0.1985151E+05 -0.4042626E+03 -0.1748910E-02 -0.3214409E-03  0.8503152E+05 -0.1932411E+04
  0.1180000E+02  0.1985151E+05  0.2357078E+02 -0.1748910E-02 -0.6989163E-04  0.8503152E+05  0.1319525E+03
  0.1190000E+02  0.1985151E+05  0.4399987E+03 -0.1748910E-02  0.2198619E-03  0.8503152E+05  0.2139402E+04
  0.1200000E+02  0.1985151E+05  0.8033905E+03 -0.1748910E-02  0.5319318E-03  0.8503152E+05  0.3889291E+04
  0.1210000E+02  0.1985151E+05  0.1078366E+04 -0.1748910E-02  0.8487129E-03  0.8503152E+05  0.5211318E+04
  0.1220000E+02  0.1985151E+05  0.1239131E+04 -0.1748910E-02  0.1152155E-02  0.8503152E+05  0.5981526E+04
  0.1230000E+02  0.1985151E+05  0.1271950E+04 -0.1748910E-02  0.1425098E-02  0.8503152E+05  0.6134235E+04
  0.1240000E+02  0.1985151E+05  0.1176207E+04 -0.1748910E-02  0.1652518E-02  0.8503152E+05  0.5667036E+04
  0.1250000E+02  0.1985151E+05  0.9642512E+03 -0.1748910E-02  0.1822603E-02  0.8503152E+05  0.4640025E+04
  0.1260000E+02  0.1985151E+05  0.6597672E+03 -0.1748910E-02  0.1927638E-02  0.8503152E+05  0.3167910E+04
  0.1270000E+02  0.1985151E+05  0.2953264E+03 -0.1748910E-02  0.1964480E-02  0.8503152E+05  0.1408117E+04
  0.1280000E+02  0.1985151E+05 -0.9123534E+02 -0.1748910E-02  0.1934786E-02  0.8503152E+05 -0.4566907E+03
  0.1290000E+02  0.1985151E+05 -0.4605869E+03 -0.1748910E-02  0.1844800E-02  0.8503152E+05 -0.2236819E+04
  0.1300000E+02  0.1985151E+05 -0.7759885E+03 -0.1748910E-02  0.1704884E-02  0.8503152E+05 -0.3755228E+04
  0.1310000E+02  0.1985151E+05 -0.1006843E+04 -0.1748910E-02  0.1528672E-02  0.8503152E+05 -0.4864656E+04
  0.1320000E+02  0.1985151E+05 -0.1131705E+04 -0.1748910E-02  0.1332065E-02  0.8503152E+05 -0.5462097E+04
  0.1330000E+02  0.1985151E+05 -0.1140214E+04 -0.1748910E-02  0.1131997E-02  0.8503152E+05 -0.5498072E+04
  0.1340000E+02  0.1985151E+05 -0.1033902E+04 -0.1748910E-02  0.9452344E-03  0.8503152E+05 -0.4980483E+04
  0.1350000E+02  0.1985151E+05 -0.8258133E+03 -0.1748910E-02  0.7871165E-03  0.8503152E+05 -0.3972723E+04
  0.1360000E+02  0.1985151E+05 -0.5389534E+03 -0.1748910E-02  0.6704516E-03  0.8503152E+05 -0.2586141E+04
  0.1370000E+02  0.1985151E+05 -0.2037653E+03 -0.1748910E-02  0.6045976E-03  0.8503152E+05 -0.9678489E+03
  0.1380000E+02  0.1985151E+05  0.1450722E+03 -0.1748910E-02  0.5948065E-03  0.8503152E+05  0.7147608E+03
  0.1390000E+02  0.1985151E+05  0.4721894E+03 -0.1748910E-02  0.6418047E-03  0.8503152E+05  0.2291111E+04
  0.1400000E+02  0.1985151E+05  0.7451653E+03 -0.1748910E-02  0.7417538E-03  0.8503152E+05  0.3605007E+04
  0.1410000E+02  0.1985151E+05  0.9376635E+03 -0.1748910E-02  0.8864425E-03  0.8503152E+05  0.4529715E+04
  0.1420000E+02  0.1985151E+05  0.1031935E+04 -0.1748910E-02  0.1063817E-02  0.8503152E+05  0.4980026E+04
  0.1430000E+02  0.1985151E+05  0.1020504E+04 -0.1748910E-02  0.1258718E-02  0.8503152E+05  0.4920333E+04
  0.1440000E+02  0.1985151E+05  0.9066506E+03 -0.1748910E-02  0.1453820E-02  0.8503152E+05  0.4366916E+04
  0.1450000E+02  0.1985151E+05  0.7038972E+03 -0.1748910E-02  0.1630675E-02  0.8503152E+05  0.3385408E+04
  0.1460000E+02  0.1985151E+05  0.4344001E+03 -0.1748910E-02  0.1770851E-02  0.8503152E+05  0.2083031E+04
  0.1470000E+02  0.1985151E+05  0.1266437E+03 -0.1748910E-02  0.1856983E-02  0.8503152E+05  0.5973849E+03
  0.1480000E+02  0.1985151E+05 -0.1877095E+03 -0.1748910E-02  0.1873902E-02  0.8503152E+05 -0.9187007E+03
  0.1490000E+02  0.1985151E+05 -0.4768505E+03 -0.1748910E-02  0.1809418E-02  0.8503152E+05 -0.2311854E+04
  0.1500000E+02  0.1985151E+05 -0.7122505E+03 -0.1748910E-02  0.1655151E-02  0.8503152E+05 -0.3444640E+04
  0.1510000E+02  0.1985151E+05 -0.8712922E+03 -0.1748910E-02  0.1406987E-02  0.8503152E+05 -0.4208260E+04
  0.1520000E+02  0.1985151E+05 -0.9395134E+03 -0.1748910E-02  0.1065439E-02  0.8503152E+05 -0.4533317E+04
  0.1530000E+02  0.1985151E+05 -0.9118738E+03 -0.1748910E-02  0.6356493E-03  0.8503152E+05 -0.4395922E+04
  0.1540000E+02  0.1985151E+05 -0.7930704E+03 -0.1748910E-02  0.1272928E-03  0.8503152E+05 -0.3819135E+04
  0.1550000E+02  0.1985151E+05 -0.5968844E+03 -0.1748910E-02 -0.4458365E-03  0.8503152E+05 -0.2869796E+04
  0.1560000E+02  0.1985151E+05 -0.3445566E+03 -0.1748910E-02 -0.1066402E-02  0.8503152E+05 -0.1650660E+04
  0.1570000E+02  0.1985151E+05 -0.6264457E+02 -0.1748910E-02 -0.1714169E-02  0.8503152E+05 -0.2900036E+03
  0.1580000E+02  0.1985151E+05  0.2199458E+03 -0.1748910E-02 -0.2366964E-02  0.8503152E+05  0.1072681E+04
  0.1590000E+02  0.1985151E+05  0.4747761E+03 -0.1748910E-02 -0.3001528E-02  0.8503152E+05  0.2300281E+04
Zone t="DoF    2",I=   160,F=POINT
  0.0000000E+00 -0.1510756E-02 -0.8843700E-03  0.5347832E+05  0.9573050E+05 -0.7752533E-02 -0.5777371E-02
  0.1000000E+00 -0.1510756E-02 -0.9151833E-03  0.5347832E+05  0.9367011E+05 -0.7752533E-02 -0.5888838E-02
  0.2000000E+00 -0.1510756E-02 -0.1001719E-02  0.5347832E+05  0.8761303E+05 -0.7752533E-02 -0.6198166E-02
  0.3000000E+00 -0.1510756E-02 -0.1126934E-02  0.5347832E+05  0.7792288E+05 -0.7752533E-02 -0.6633010E-02
  0.4000000E+00 -0.1510756E-02 -0.1264592E-02  0.5347832E+05  0.6517695E+05 -0.7752533E-02 -0.7082148E-02
  0.5000000E+00 -0.1510756E-02 -0.1382291E-02  0.5347832E+05  0.5012537E+05 -0.7752533E-02 -0.7408515E-02
  0.6000000E+00 -0.1510756E-02 -0.1445263E-02  0.5347832E+05  0.3363859E+05 -0.7752533E-02 -0.7465606E-02
  0.7000000E+00 -0.1510756E-02 -0.1420568E-02  0.5347832E+05  0.1664708E+05 -0.7752533E-02 -0.7115556E-02
  0.8000000E+00 -0.1510756E-02 -0.1281259E-02  0.5347832E+05  0.7780904E+02 -0.7752533E-02 -0.6247084E-02
  0.9000000E+00 -0.1510756E-02 -0.1010072E-02  0.5347832E+05 -0.1520734E+05 -0.7752533E-02 -0.4791438E-02
  0.1000000E+01 -0.1510756E-02 -0.6022759E-03  0.5347832E+05 -0.2846716E+05 -0.7752533E-02 -0.2734654E-02
  0.1100000E+01 -0.1510756E-02 -0.6734173E-04  0.5347832E+05 -0.3912615E+05 -0.7752533E-02 -0.1247552E-03
  0.1200000E+01 -0.1510756E-02  0.5707538E-03  0.5347832E+05 -0.4680619E+05 -0.7752533E-02  0.2926997E-02
  0.1300000E+01 -0.1510756E-02  0.1274676E-02  0.5347832E+05 -0.5134267E+05 -0.7752533E-02  0.6251138E-02
  0.1400000E+01 -0.1510756E-02  0.1996272E-02  0.5347832E+05 -0.5278440E+05 -0.7752533E-02  0.9631088E-02
  0.1500000E+01 -0.1510756E-02  0.2680301E-02  0.5347832E+05 -0.5137788E+05 -0.7752533E-02  0.1281947E-01
  0.1600000E+01 -0.1510756E-02  0.3269042E-02  0.5347832E+05 -0.4753757E+05 -0.7752533E-02  0.1555825E-01
  0.1700000E+01 -0.1510756E-02  0.3707384E-02  0.5347832E+05 -0.4180519E+05 -0.7752533E-02  0.1760109E-01
  0.1800000E+01 -0.1510756E-02  0.3947930E-02  0.5347832E+05 -0.3480155E+05 -0.7752533E-02  0.1873573E-01
  0.1900000E+01 -0.1510756E-02  0.3955647E-02  0.5347832E+05 -0.2717501E+05 -0.7752533E-02  0.1880465E-01
  0.2000000E+01 -0.1510756E-02  0.3711633E-02  0.5347832E+05 -0.1955091E+05 -0.7752533E-02  0.1772171E-01
  0.2100000E+01 -0.1510756E-02  0.3215617E-02  0.5347832E+05 -0.1248584E+05 -0.7752533E-02  0.1548351E-01
  0.2200000E+01 -0.1510756E-02  0.2486940E-02  0.5347832E+05 -0.6430238E+04 -0.7752533E-02  0.1217407E-01
  0.2300000E+01 -0.1510756E-02  0.1563884E-02  0.5347832E+05 -0.1701840E+04 -0.7752533E-02  0.7962273E-02
  0.2400000E+01 -0.1510756E-02  0.5013586E-03  0.5347832E+05  0.1528197E+04 -0.7752533E-02  0.3092075E-02
  0.2500000E+01 -0.1510756E-02 -0.6328738E-03  0.5347832E+05  0.3236308E+04 -0.7752533E-02 -0.2133755E-02
  0.2600000E+01 -0.1510756E-02 -0.1763189E-02  0.5347832E+05  0.3535191E+04 -0.7752533E-02 -0.7375389E-02
  0.2700000E+01 -0.1510756E-02 -0.2811837E-02  0.5347832E+05  0.2651661E+04 -0.7752533E-02 -0.1228114E-01
  0.2800000E+01 -0.1510756E-02 -0.3705025E-02  0.5347832E+05  0.8964362E+03 -0.7752533E-02 -0.1651438E-01
  0.2900000E+01 -0.1510756E-02 -0.4378775E-02  0.5347832E+05 -0.1371340E+04 -0.7752533E-02 -0.1977975E-01
  0.3000000E+01 -0.1510756E-02 -0.4784078E-02  0.5347832E+05 -0.3781175E+04 -0.7752533E-02 -0.2184646E-01
  0.3100000E+01 -0.1510756E-02 -0.4890940E-02  0.5347832E+05 -0.5986840E+04 -0.7752533E-02 -0.2256697E-01
  0.3200000E+01 -0.1510756E-02 -0.4690911E-02  0.5347832E+05 -0.7697204E+04 -0.7752533E-02 -0.2188906E-01
  0.3300000E+01 -0.1510756E-02 -0.4197914E-02  0.5347832E+05 -0.8699969E+04 -0.7752533E-02 -0.1986061E-01
  0.3400000E+01 -0.1510756E-02 -0.3447282E-02  0.5347832E+05 -0.8876436E+04 -0.7752533E-02 -0.1662645E-01
  0.3500000E+01 -0.1510756E-02 -0.2493084E-02  0.5347832E+05 -0.8206567E+04 -0.7752533E-02 -0.1241756E-01
  0.3600000E+01 -0.1510756E-02 -0.1403932E-02  0.5347832E+05 -0.6764324E+04 -0.7752533E-02 -0.7533389E-02
  0.3700000E+01 -0.1510756E-02 -0.2576542E-03  0.5347832E+05 -0.4704357E+04 -0.7752533E-02 -0.2318957E-02
  0.3800000E+01 -0.1510756E-02  0.8647606E-03  0.5347832E+05 -0.2241588E+04 -0.7752533E-02  0.2861674E-02
  0.3900000E+01 -0.1510756E-02  0.1885436E-02  0.5347832E+05  0.3738820E+03 -0.7752533E-02  0.7653250E-02
  0.4000000E+01 -0.1510756E-02  0.2735561E-02  0.5347832E+05  0.2883950E+04 -0.7752533E-02  0.1173615E-01
  0.4100000E+01 -0.1510756E-02  0.3360584E-02  0.5347832E+05  0.5049213E+04 -0.7752533E-02  0.1485030E-01
  0.4200000E+01 -0.1510756E-02  0.3724179E-02  0.5347832E+05  0.6672459E+04 -0.7752533E-02  0.1681392E-01
  0.4300000E+01 -0.1510756E-02  0.3810698E-02  0.5347832E+05  0.7616940E+04 -0.7752533E-02  0.1753588E-01
  0.4400000E+01 -0.1510756E-02  0.3625941E-02  0.5347832E+05  0.7817931E+04 -0.7752533E-02  0.1702075E-01
  0.4500000E+01 -0.1510756E-02  0.3196165E-02  0.5347832E+05  0.7286685E+04 -0.7752533E-02  0.1536602E-01
  0.4600000E+01 -0.1510756E-02  0.2565478E-02  0.5347832E+05  0.6106595E+04 -0.7752533E-02  0.1275207E-01
  0.4700000E+01 -0.1510756E-02  0.1791847E-02  0.5347832E+05  0.4422508E+04 -0.7752533E-02  0.9425741E-02
  0.4800000E+01 -0.1510756E-02  0.9420855E-03  0.5347832E+05  0.2424242E+04 -0.7752533E-02  0.5678956E-02
  0.4900000E+01 -0.1510756E-02  0.8622728E-04  0.5347832E+05  0.3262701E+03 -0.7752533E-02  0.1824180E-02
  0.5000000E+01 -0.1510756E-02 -0.7081903E-03  0.5347832E+05 -0.1654457E+04 -0.7752533E-02 -0.1831029E-02
  0.5100000E+01 -0.1510756E-02 -0.1381502E-02  0.5347832E+05 -0.3320054E+04 -0.7752533E-02 -0.5008518E-02
  0.5200000E+01 -0.1510756E-02 -0.1886463E-02  0.5347832E+05 -0.4510827E+04 -0.7752533E-02 -0.7480844E-02
  0.5300000E+01 -0.1510756E-02 -0.2191664E-02  0.5347832E+05 -0.5119925E+04 -0.7752533E-02 -0.9087915E-02
  0.5400000E+01 -0.1510756E-02 -0.2283515E-02  0.5347832E+05 -0.5102500E+04 -0.7752533E-02 -0.9747626E-02
  0.5500000E+01 -0.1510756E-02 -0.2166694E-02  0.5347832E+05 -0.4478238E+04 -0.7752533E-02 -0.9459731E-02
  0.5600000E+01 -0.1510756E-02 -0.1863059E-02  0.5347832E+05 -0.3327684E+04 -0.7752533E-02 -0.8302897E-02
  0.5700000E+01 -0.1510756E-02 -0.1409153E-02  0.5347832E+05 -0.1782493E+04 -0.7752533E-02 -0.6425273E-02
  0.5800000E+01 -0.1510756E-02 -0.8525832E-03  0.5347832E+05 -0.1098946E+02 -0.7752533E-02 -0.4029689E-02
  0.5900000E+01 -0.1510756E-02 -0.2475729E-03  0.5347832E+05  0.1799510E+04 -0.7752533E-02 -0.1354704E-02
  0.6000000E+01 -0.1510756E-02  0.3498837E-03  0.5347832E+05  0.3461948E+04 -0.7752533E-02  0.1346711E-02
  0.6100000E+01 -0.1510756E-02  0.8868235E-03  0.5347832E+05  0.4808012E+04 -0.7752533E-02  0.3828890E-02
  0.6200000E+01 -0.1510756E-02  0.1317722E-02  0.5347832E+05  0.5704565E+04 -0.7752533E-02  0.5874033E-02
  0.6300000E+01 -0.1510756E-02  0.1608066E-02  0.5347832E+05  0.6066034E+04 -0.7752533E-02  0.7309538E-02
  0.6400000E+01 -0.1510756E-02  0.1736897E-02  0.5347832E+05  0.5861953E+04 -0.7752533E-02  0.8021200E-02
  0.6500000E+01 -0.1510756E-02  0.1698060E-02  0.5347832E+05  0.5118859E+04 -0.7752533E-02  0.7960793E-02
  0.6600000E+01 -0.1510756E-02  0.1500175E-02  0.5347832E+05  0.3916451E+04 -0.7752533E-02  0.7148061E-02
  0.6700000E+01 -0.1510756E-02  0.1165313E-02  0.5347832E+05  0.2378742E+04 -0.7752533E-02  0.5666772E-02
  0.6800000E+01 -0.1510756E-02  0.7265900E-03  0.5347832E+05  0.6609891E+03 -0.7752533E-02  0.3655567E-02
  0.6900000E+01 -0.1510756E-02  0.2248775E-03  0.5347832E+05 -0.1066277E+04 -0.7752533E-02  0.1294445E-02
  0.7000000E+01 -0.1510756E-02 -0.2950049E-03  0.5347832E+05 -0.2634298E+04 -0.7752533E-02 -0.1211755E-02
  0.7100000E+01 -0.1510756E-02 -0.7882905E-03  0.5347832E+05 -0.3892585E+04 -0.7752533E-02 -0.3651359E-02
  0.7200000E+01 -0.1510756E-02 -0.1214114E-02  0.5347832E+05 -0.4723465E+04 -0.7752533E-02 -0.5823902E-02
  0.7300000E+01 -0.1510756E-02 -0.1538854E-02  0.5347832E+05 -0.5052942E+04 -0.7752533E-02 -0.7556493E-02
  0.7400000E+01 -0.1510756E-02 -0.1738707E-02  0.5347832E+05 -0.4857283E+04 -0.7752533E-02 -0.8717298E-02
  0.7500000E+01 -0.1510756E-02 -0.1801327E-02  0.5347832E+05 -0.4164425E+04 -0.7752533E-02 -0.9225146E-02
  0.7600000E+01 -0.1510756E-02 -0.1726379E-02  0.5347832E+05 -0.3050371E+04 -0.7752533E-02 -0.9054422E-02
  0.7700000E+01 -0.1510756E-02 -0.1525027E-02  0.5347832E+05 -0.1630957E+04 -0.7752533E-02 -0.8235121E-02
  0.7800000E+01 -0.1510756E-02 -0.1218472E-02  0.5347832E+05 -0.4997123E+02 -0.7752533E-02 -0.6848335E-02
  0.7900000E+01 -0.1510756E-02 -0.8356532E-03  0.5347832E+05  0.1535413E+04 -0.7752533E-02 -0.5017514E-02
  0.8000000E+01 -0.1510756E-02 -0.4104111E-03  0.5347832E+05  0.2969974E+04 -0.7752533E-02 -0.2896635E-02
  0.8100000E+01 -0.1510756E-02  0.2166506E-04  0.5347832E+05  0.4115656E+04 -0.7752533E-02 -0.6562531E-03
  0.8200000E+01 -0.1510756E-02  0.4263580E-03  0.5347832E+05  0.4864457E+04 -0.7752533E-02  0.1531128E-02
  0.8300000E+01 -0.1510756E-02  0.7737029E-03  0.5347832E+05  0.5148542E+04 -0.7752533E-02  0.3505343E-02
  0.8400001E+01 -0.1510756E-02  0.1040300E-02  0.5347832E+05  0.4946006E+04 -0.7752533E-02  0.5130937E-02
  0.8500000E+01 -0.1510756E-02  0.1210971E-02  0.5347832E+05  0.4282324E+04 -0.7752533E-02  0.6307088E-02
  0.8600000E+01 -0.1510756E-02  0.1279567E-02  0.5347832E+05  0.3226998E+04 -0.7752533E-02  0.6973999E-02
  0.8700000E+01 -0.1510756E-02  0.1248949E-02  0.5347832E+05  0.1886202E+04 -0.7752533E-02  0.7115551E-02
  0.8800000E+01 -0.1510756E-02  0.1130146E-02  0.5347832E+05  0.3918393E+03 -0.7752533E-02  0.6758149E-02
  0.8900001E+01 -0.1510756E-02  0.9408568E-03  0.5347832E+05 -0.1111374E+04 -0.7752533E-02  0.5966024E-02
  0.9000000E+01 -0.1510756E-02  0.7034109E-03  0.5347832E+05 -0.2480309E+04 -0.7752533E-02  0.4833621E-02
  0.9100000E+01 -0.1510756E-02  0.4424485E-03  0.5347832E+05 -0.3586874E+04 -0.7752533E-02  0.3475797E-02
  0.9200000E+01 -0.1510756E-02  0.1825403E-03  0.5347832E+05 -0.4330102E+04 -0.7752533E-02  0.2016973E-02
  0.9300000E+01 -0.1510756E-02 -0.5407096E-04  0.5347832E+05 -0.4645382E+04 -0.7752533E-02  0.5799262E-03
  0.9400001E+01 -0.1510756E-02 -0.2493218E-03  0.5347832E+05 -0.4509892E+04 -0.7752533E-02 -0.7243395E-03
  0.9500000E+01 -0.1510756E-02 -0.3907216E-03  0.5347832E+05 -0.3944104E+04 -0.7752533E-02 -0.1805322E-02
  0.9600000E+01 -0.1510756E-02 -0.4720839E-03  0.5347832E+05 -0.3008980E+04 -0.7752533E-02 -0.2599208E-02
  0.9700000E+01 -0.1510756E-02 -0.4936425E-03  0.5347832E+05 -0.1799452E+04 -0.7752533E-02 -0.3072434E-02
  0.9800000E+01 -0.1510756E-02 -0.4615147E-03  0.5347832E+05 -0.4347256E+03 -0.7752533E-02 -0.3222277E-02
  0.9900001E+01 -0.1510756E-02 -0.3866506E-03  0.5347832E+05  0.9534929E+03 -0.7752533E-02 -0.3074728E-02
  0.1000000E+02 -0.1510756E-02 -0.2833419E-03  0.5347832E+05  0.2233697E+04 -0.7752533E-02 -0.2679851E-02
  0.1010000E+02 -0.1510756E-02 -0.1675040E-03  0.5347832E+05  0.3287204E+04 -0.7752533E-02 -0.2105326E-02
  0.1020000E+02 -0.1510756E-02 -0.5490394E-04  0.5347832E+05  0.4018919E+04 -0.7752533E-02 -0.1428862E-02
  0.1030000E+02 -0.1510756E-02  0.4052655E-04  0.5347832E+05  0.4366068E+04 -0.7752533E-02 -0.7300682E-03
  0.1040000E+02 -0.1510756E-02  0.1080616E-03  0.5347832E+05  0.4303296E+04 -0.7752533E-02 -0.8285377E-04
  0.1050000E+02 -0.1510756E-02  0.1411726E-03  0.5347832E+05  0.3844440E+04 -0.7752533E-02  0.4512256E-03
  0.1060000E+02 -0.1510756E-02  0.1380367E-03  0.5347832E+05  0.3040198E+04 -0.7752533E-02  0.8280580E-03
  0.1070000E+02 -0.1510756E-02  0.1015117E-03  0.5347832E+05  0.1972721E+04 -0.7752533E-02  0.1023975E-02
  0.1080000E+02 -0.1510756E-02  0.3862703E-04  0.5347832E+05  0.7469786E+03 -0.7752533E-02  0.1036687E-02
  0.1090000E+02 -0.1510756E-02 -0.4035322E-04  0.5347832E+05 -0.5194135E+03 -0.7752533E-02  0.8840264E-03
  0.1100000E+02 -0.1510756E-02 -0.1231817E-03  0.5347832E+05 -0.1707737E+04 -0.7752533E-02  0.6008680E-03
  0.1110000E+02 -0.1510756E-02 -0.1970660E-03  0.5347832E+05 -0.2709336E+04 -0.7752533E-02  0.2344698E-03
  0.1120000E+02 -0.1510756E-02 -0.2501151E-03  0.5347832E+05 -0.3435507E+04 -0.7752533E-02 -0.1610713E-03
  0.1130000E+02 -0.1510756E-02 -0.2727147E-03  0.5347832E+05 -0.3825422E+04 -0.7752533E-02 -0.5309847E-03
  0.1140000E+02 -0.1510756E-02 -0.2585725E-03  0.5347832E+05 -0.3851096E+04 -0.7752533E-02 -0.8254718E-03
  0.1150000E+02 -0.1510756E-02 -0.2054896E-03  0.5347832E+05 -0.3519249E+04 -0.7752533E-02 -0.1004968E-02
  0.1160000E+02 -0.1510756E-02 -0.1156195E-03  0.5347832E+05 -0.2869660E+04 -0.7752533E-02 -0.1043872E-02
  0.1170000E+02 -0.1510756E-02  0.4627961E-05  0.5347832E+05 -0.1970740E+04 -0.7752533E-02 -0.9331171E-03