VARIABLES="w (rad/s)"
"abs(F   1   1)" "angle(F   1   1)"
"abs(F   1   2)" "angle(F   1   2)"
"abs(F   1   3)" "angle(F   1   3)"
Zone t="Diffraction force - beta =   0.000 deg",I=   100,F=POINT
  0.1000000E+00  0.1911048E-01 -0.1570796E+01  0.5913961E-01 -0.3141203E+01  0.5808339E-01 -0.1570796E+01
  0.3010101E+00  0.1728493E+00 -0.1570796E+01  0.5389968E+00 -0.3138092E+01  0.5253478E+00 -0.1570796E+01
  0.5020202E+00  0.4792938E+00 -0.1570796E+01  0.1509075E+01 -0.3131968E+01  0.1456740E+01 -0.1570796E+01
  0.7030303E+00  0.9412953E+00 -0.1570796E+01  0.2986418E+01 -0.3123035E+01  0.2860917E+01 -0.1570796E+01
  0.9040404E+00  0.1555462E+01 -0.1570793E+01  0.4983716E+01 -0.3111502E+01  0.4727580E+01 -0.1570793E+01
  0.1105051E+01  0.2318028E+01 -0.1570786E+01  0.7509347E+01 -0.3097591E+01  0.7045271E+01 -0.1570786E+01
  0.1306061E+01  0.3217990E+01 -0.1570769E+01  0.1056813E+02 -0.3081542E+01  0.9780568E+01 -0.1570769E+01
  0.1507071E+01  0.4273829E+01 -0.1570734E+01  0.1415730E+02 -0.3063582E+01  0.1298961E+02 -0.1570733E+01
  0.1708081E+01  0.5464791E+01 -0.1570665E+01  0.1828442E+02 -0.3044033E+01  0.1660932E+02 -0.1570665E+01
  0.1909091E+01  0.6785128E+01 -0.1570542E+01  0.2292003E+02 -0.3023033E+01  0.2062225E+02 -0.1570542E+01
  0.2110101E+01  0.8238018E+01 -0.1570339E+01  0.2806458E+02 -0.3000914E+01  0.2503805E+02 -0.1570339E+01
  0.2311111E+01  0.9838230E+01 -0.1570019E+01  0.3367622E+02 -0.2977801E+01  0.2990156E+02 -0.1570019E+01
  0.2512121E+01  0.1149818E+02 -0.1569531E+01  0.3974710E+02 -0.2954024E+01  0.3494665E+02 -0.1569531E+01
  0.2713131E+01  0.1333494E+02 -0.1568825E+01  0.4622582E+02 -0.2929679E+01  0.4052912E+02 -0.1568825E+01
  0.2914141E+01  0.1527410E+02 -0.1567828E+01  0.5306615E+02 -0.2904920E+01  0.4642273E+02 -0.1567828E+01
  0.3115151E+01  0.1724335E+02 -0.1566445E+01  0.6025359E+02 -0.2880067E+01  0.5240778E+02 -0.1566445E+01
  0.3316161E+01  0.1936240E+02 -0.1564605E+01  0.6772903E+02 -0.2855176E+01  0.5884814E+02 -0.1564605E+01
  0.3517171E+01  0.2160058E+02 -0.1562204E+01  0.7543005E+02 -0.2830316E+01  0.6565050E+02 -0.1562204E+01
  0.3718182E+01  0.2386311E+02 -0.1559099E+01  0.8330758E+02 -0.2805613E+01  0.7252689E+02 -0.1559099E+01
  0.3919192E+01  0.2612649E+02 -0.1555152E+01  0.9136581E+02 -0.2781452E+01  0.7940584E+02 -0.1555152E+01
  0.4120202E+01  0.2850278E+02 -0.1550290E+01  0.9951150E+02 -0.2757653E+01  0.8662792E+02 -0.1550290E+01
  0.4321212E+01  0.3096178E+02 -0.1544385E+01  0.1076833E+03 -0.2734217E+01  0.9410131E+02 -0.1544385E+01
  0.4522222E+01  0.3341267E+02 -0.1537255E+01  0.1158615E+03 -0.2711383E+01  0.1015498E+03 -0.1537255E+01
  0.4723232E+01  0.3577779E+02 -0.1528698E+01  0.1239975E+03 -0.2689185E+01  0.1087378E+03 -0.1528698E+01
  0.4924242E+01  0.3808384E+02 -0.1518633E+01  0.1320679E+03 -0.2667752E+01  0.1157462E+03 -0.1518633E+01
  0.5125252E+01  0.4037342E+02 -0.1507049E+01  0.1400300E+03 -0.2647064E+01  0.1227047E+03 -0.1507049E+01
  0.5326262E+01  0.4261320E+02 -0.1493871E+01  0.1478245E+03 -0.2627030E+01  0.1295113E+03 -0.1493870E+01
  0.5527273E+01  0.4471776E+02 -0.1478951E+01  0.1554036E+03 -0.2607584E+01  0.1359073E+03 -0.1478950E+01
  0.5728283E+01  0.4660487E+02 -0.1462125E+01  0.1627494E+03 -0.2588863E+01  0.1416422E+03 -0.1462124E+01
  0.5929293E+01  0.4818587E+02 -0.1443200E+01  0.1698609E+03 -0.2571100E+01  0.1464468E+03 -0.1443199E+01
  0.6130303E+01  0.4945467E+02 -0.1422295E+01  0.1767046E+03 -0.2554260E+01  0.1503027E+03 -0.1422293E+01
  0.6331313E+01  0.5041350E+02 -0.1399640E+01  0.1832421E+03 -0.2538166E+01  0.1532160E+03 -0.1399638E+01
  0.6532323E+01  0.5100831E+02 -0.1375299E+01  0.1894442E+03 -0.2522791E+01  0.1550234E+03 -0.1375297E+01
  0.6733334E+01  0.5116320E+02 -0.1349230E+01  0.1952910E+03 -0.2508188E+01  0.1554932E+03 -0.1349226E+01
  0.6934343E+01  0.5080270E+02 -0.1321390E+01  0.2007629E+03 -0.2494373E+01  0.1543972E+03 -0.1321386E+01
  0.7135354E+01  0.4991224E+02 -0.1292143E+01  0.2058339E+03 -0.2481300E+01  0.1516904E+03 -0.1292138E+01
  0.7336363E+01  0.4845470E+02 -0.1261669E+01  0.2104877E+03 -0.2468885E+01  0.1472599E+03 -0.1261663E+01
  0.7537374E+01  0.4638839E+02 -0.1229964E+01  0.2147091E+03 -0.2457143E+01  0.1409794E+03 -0.1229955E+01
  0.7738384E+01  0.4369556E+02 -0.1197091E+01  0.2184843E+03 -0.2446158E+01  0.1327947E+03 -0.1197080E+01
  0.7939394E+01  0.4036192E+02 -0.1163103E+01  0.2218057E+03 -0.2435910E+01  0.1226628E+03 -0.1163090E+01
  0.8140405E+01  0.3640082E+02 -0.1127985E+01  0.2246511E+03 -0.2426379E+01  0.1106236E+03 -0.1127966E+01
  0.8341414E+01  0.3182062E+02 -0.1091202E+01  0.2270138E+03 -0.2417476E+01  0.9670310E+02 -0.1091177E+01
  0.8542424E+01  0.2664876E+02 -0.1051764E+01  0.2288822E+03 -0.2409230E+01  0.8098446E+02 -0.1051728E+01
  0.8743435E+01  0.2091881E+02 -0.1007075E+01  0.2302500E+03 -0.2401646E+01  0.6356992E+02 -0.1007021E+01
  0.8944445E+01  0.1467758E+02 -0.9489977E+00  0.2311102E+03 -0.2394768E+01  0.4460154E+02 -0.9489068E+00
  0.9145455E+01  0.7997217E+01 -0.8400890E+00  0.2314646E+03 -0.2388562E+01  0.2429898E+02 -0.8398820E+00
  0.9346465E+01  0.1567308E+01  0.1066166E+00  0.2312934E+03 -0.2383099E+01  0.4764100E+01  0.1083244E+00
  0.9547475E+01  0.6941982E+01  0.1979487E+01  0.2306024E+03 -0.2378224E+01  0.2110556E+02  0.1979321E+01
  0.9748485E+01  0.1469370E+02  0.2112396E+01  0.2293893E+03 -0.2374004E+01  0.4466388E+02  0.2112287E+01
  0.9949495E+01  0.2274390E+02  0.2170721E+01  0.2276491E+03 -0.2370508E+01  0.6912946E+02  0.2170638E+01
  0.1015051E+02  0.3099295E+02  0.2210566E+01  0.2253914E+03 -0.2367696E+01  0.9419926E+02  0.2210496E+01
  0.1035151E+02  0.3937560E+02  0.2242433E+01  0.2226103E+03 -0.2365685E+01  0.1196751E+03  0.2242372E+01
  0.1055252E+02  0.4782512E+02  0.2269987E+01  0.2193308E+03 -0.2364357E+01  0.1453540E+03  0.2269932E+01
  0.1075354E+02  0.5628894E+02  0.2294360E+01  0.2155320E+03 -0.2363887E+01  0.1710765E+03  0.2294309E+01
  0.1095455E+02  0.6470406E+02  0.2316431E+01  0.2112285E+03 -0.2364184E+01  0.1966505E+03  0.2316383E+01
  0.1115556E+02  0.7301659E+02  0.2336693E+01  0.2064523E+03 -0.2365297E+01  0.2219131E+03  0.2336647E+01
  0.1135657E+02  0.8117178E+02  0.2355247E+01  0.2011795E+03 -0.2367378E+01  0.2466968E+03  0.2355203E+01
  0.1155758E+02  0.8911477E+02  0.2372382E+01  0.1954439E+03 -0.2370449E+01  0.2708361E+03  0.2372340E+01
  0.1175859E+02  0.9679362E+02  0.2388234E+01  0.1892527E+03 -0.2374647E+01  0.2941723E+03  0.2388190E+01
  0.1195960E+02  0.1041606E+03  0.2402849E+01  0.1825982E+03 -0.2380170E+01  0.3165605E+03  0.2402807E+01
  0.1216061E+02  0.1111578E+03  0.2416542E+01  0.1755533E+03 -0.2386977E+01  0.3378250E+03  0.2416500E+01
  0.1236162E+02  0.1177485E+03  0.2429045E+01  0.1680363E+03 -0.2395538E+01  0.3578540E+03  0.2429003E+01
  0.1256263E+02  0.1238799E+03  0.2440496E+01  0.1600532E+03 -0.2406280E+01  0.3764874E+03  0.2440454E+01
  0.1276364E+02  0.1295096E+03  0.2451117E+01  0.1516316E+03 -0.2419429E+01  0.3935954E+03  0.2451075E+01
  0.1296465E+02  0.1345943E+03  0.2460811E+01  0.1426395E+03 -0.2436483E+01  0.4090477E+03  0.2460768E+01
  0.1316566E+02  0.1390926E+03  0.2469542E+01  0.1327532E+03 -0.2459613E+01  0.4227175E+03  0.2469499E+01
  0.1336667E+02  0.1429699E+03  0.2477475E+01  0.1212298E+03 -0.2495067E+01  0.4345000E+03  0.2477432E+01
  0.1356768E+02  0.1461927E+03  0.2484609E+01  0.1042812E+03 -0.2569314E+01  0.4442941E+03  0.2484565E+01
  0.1376869E+02  0.1487341E+03  0.2490891E+01  0.4089138E+01  0.2051951E+01  0.4520161E+03  0.2490846E+01
  0.1396970E+02  0.1505721E+03  0.2496609E+01  0.1274678E+03 -0.2307512E+01  0.4576017E+03  0.2496564E+01
  0.1417071E+02  0.1516742E+03  0.2501459E+01  0.1064849E+03 -0.2432171E+01  0.4609498E+03  0.2501413E+01
  0.1437172E+02  0.1520179E+03  0.2505349E+01  0.9408673E+02 -0.2492673E+01  0.4619945E+03  0.2505301E+01
  0.1457273E+02  0.1515841E+03  0.2508374E+01  0.8358149E+02 -0.2544501E+01  0.4606753E+03  0.2508326E+01
  0.1477374E+02  0.1503913E+03  0.2510718E+01  0.7400730E+02 -0.2599697E+01  0.4570495E+03  0.2510668E+01
  0.1497475E+02  0.1483969E+03  0.2512019E+01  0.6504963E+02 -0.2662418E+01  0.4509875E+03  0.2511967E+01
  0.1517576E+02  0.1455893E+03  0.2512164E+01  0.5669190E+02 -0.2738236E+01  0.4424551E+03  0.2512110E+01
  0.1537677E+02  0.1420050E+03  0.2511171E+01  0.4893394E+02 -0.2832477E+01  0.4315616E+03  0.2511115E+01
  0.1557778E+02  0.1376259E+03  0.2508678E+01  0.4191801E+02 -0.2953001E+01  0.4182530E+03  0.2508621E+01
  0.1577879E+02  0.1324702E+03  0.2504375E+01  0.3583959E+02 -0.3108081E+01  0.4025842E+03  0.2504315E+01
  0.1597980E+02  0.1265176E+03  0.2497502E+01  0.3101954E+02  0.2976722E+01  0.3844935E+03  0.2497439E+01
  0.1618081E+02  0.1198017E+03  0.2486399E+01  0.2776965E+02  0.2734450E+01  0.3640834E+03  0.2486333E+01
  0.1638182E+02  0.1119237E+03  0.2465401E+01  0.2634828E+02  0.2465916E+01  0.3401399E+03  0.2465332E+01
  0.1658283E+02  0.1007970E+03  0.2405370E+01  0.2669988E+02  0.2203537E+01  0.3063210E+03  0.2405296E+01
  0.1678384E+02  0.1161009E+03  0.3070532E+01  0.2840207E+02  0.1975812E+01  0.3528894E+03  0.3070460E+01
  0.1698485E+02  0.9505183E+02  0.2559963E+01  0.3092174E+02  0.1793266E+01  0.2888791E+03  0.2559880E+01
  0.1718586E+02  0.8420275E+02  0.2509116E+01  0.3380325E+02  0.1649819E+01  0.2559057E+03  0.2509027E+01
  0.1738687E+02  0.7434097E+02  0.2476472E+01  0.3673295E+02  0.1536950E+01  0.2259353E+03  0.2476376E+01
  0.1758788E+02  0.6457935E+02  0.2443253E+01  0.3947157E+02  0.1446356E+01  0.1962695E+03  0.2443147E+01
  0.1778889E+02  0.5481619E+02  0.2402923E+01  0.4189767E+02  0.1371878E+01  0.1665999E+03  0.2402807E+01
  0.1798990E+02  0.4513782E+02  0.2348342E+01  0.4389681E+02  0.1309142E+01  0.1371881E+03  0.2348213E+01
  0.1819091E+02  0.3565788E+02  0.2267123E+01  0.4544682E+02  0.1254480E+01  0.1083798E+03  0.2266979E+01
  0.1839192E+02  0.2664915E+02  0.2133429E+01  0.4655036E+02  0.1205702E+01  0.8100400E+02  0.2133275E+01
  0.1859293E+02  0.1863394E+02  0.1883798E+01  0.4711783E+02  0.1160758E+01  0.5664787E+02  0.1883676E+01
  0.1879394E+02  0.1322415E+02  0.1383707E+01  0.4709745E+02  0.1118192E+01  0.4020752E+02  0.1383805E+01
  0.1899495E+02  0.1328569E+02  0.6822364E+00  0.4655577E+02  0.1076615E+01  0.4038621E+02  0.6826205E+00
  0.1919596E+02  0.1817911E+02  0.2163186E+00  0.4544077E+02  0.1034180E+01  0.5524805E+02  0.2166477E+00
  0.1939697E+02  0.2472627E+02 -0.1632768E-01  0.4337917E+02  0.9855127E+00  0.7513963E+02 -0.1609794E-01
  0.1959798E+02  0.3143690E+02 -0.1432691E+00  0.3941574E+02  0.9119712E+00  0.9553017E+02 -0.1431057E+00
  0.1979899E+02  0.3780372E+02 -0.2222017E+00  0.7427754E+02  0.1456035E+01  0.1148773E+03 -0.2220801E+00
  0.2000000E+02  0.4360425E+02 -0.2765802E+00  0.4210637E+02  0.9345333E+00  0.1325037E+03 -0.2764868E+00
