VARIABLES="w (rad/s)"
"abs(F   1   1)" "angle(F   1   1)"
"abs(F   1   2)" "angle(F   1   2)"
"abs(F   1   3)" "angle(F   1   3)"
Zone t="Diffraction force - beta =   0.000 deg",I=   100,F=POINT
  0.1000000E+00  0.6363696E-01 -0.1570751E+01  0.6618585E+03 -0.3482402E-07  0.1934142E+00 -0.1570699E+01
  0.3010101E+00  0.5761584E+00 -0.1570797E+01  0.6610192E+03 -0.2854405E-05  0.1751137E+01 -0.1570795E+01
  0.5020202E+00  0.1600366E+01 -0.1570794E+01  0.6593301E+03 -0.2202852E-04  0.4864054E+01 -0.1570797E+01
  0.7030303E+00  0.3137697E+01 -0.1570797E+01  0.6567738E+03 -0.8437895E-04  0.9536498E+01 -0.1570799E+01
  0.9040404E+00  0.5182626E+01 -0.1570797E+01  0.6533414E+03 -0.2294986E-03  0.1575170E+02 -0.1570794E+01
  0.1105051E+01  0.7728542E+01 -0.1570794E+01  0.6490227E+03 -0.5089461E-03  0.2348959E+02 -0.1570792E+01
  0.1306061E+01  0.1076087E+02 -0.1570787E+01  0.6438175E+03 -0.9851267E-03  0.3270583E+02 -0.1570788E+01
  0.1507071E+01  0.1429377E+02 -0.1570778E+01  0.6377352E+03 -0.1730031E-02  0.4344343E+02 -0.1570777E+01
  0.1708081E+01  0.1830146E+02 -0.1570757E+01  0.6307767E+03 -0.2823495E-02  0.5562409E+02 -0.1570757E+01
  0.1909091E+01  0.2277239E+02 -0.1570720E+01  0.6229822E+03 -0.4351713E-02  0.6921258E+02 -0.1570720E+01
  0.2110101E+01  0.2770313E+02 -0.1570660E+01  0.6143649E+03 -0.6405154E-02  0.8419865E+02 -0.1570660E+01
  0.2311111E+01  0.3310112E+02 -0.1570566E+01  0.6049841E+03 -0.9076812E-02  0.1006048E+03 -0.1570565E+01
  0.2512121E+01  0.3887064E+02 -0.1570422E+01  0.5948687E+03 -0.1245966E-01  0.1181400E+03 -0.1570422E+01
  0.2713131E+01  0.4511974E+02 -0.1570213E+01  0.5840906E+03 -0.1664670E-01  0.1371330E+03 -0.1570213E+01
  0.2914141E+01  0.5176433E+02 -0.1569920E+01  0.5727211E+03 -0.2172673E-01  0.1573276E+03 -0.1569921E+01
  0.3115151E+01  0.5872132E+02 -0.1569518E+01  0.5608008E+03 -0.2778320E-01  0.1784718E+03 -0.1569518E+01
  0.3316161E+01  0.6609895E+02 -0.1568982E+01  0.5484132E+03 -0.3489790E-01  0.2008943E+03 -0.1568982E+01
  0.3517171E+01  0.7385415E+02 -0.1568283E+01  0.5356489E+03 -0.4314289E-01  0.2244648E+03 -0.1568283E+01
  0.3718182E+01  0.8187875E+02 -0.1567387E+01  0.5225811E+03 -0.5258262E-01  0.2488532E+03 -0.1567387E+01
  0.3919192E+01  0.9013484E+02 -0.1566262E+01  0.5092254E+03 -0.6327130E-01  0.2739453E+03 -0.1566262E+01
  0.4120202E+01  0.9871916E+02 -0.1564876E+01  0.4957015E+03 -0.7526679E-01  0.3000353E+03 -0.1564876E+01
  0.4321212E+01  0.1075848E+03 -0.1563196E+01  0.4820916E+03 -0.8861414E-01  0.3269797E+03 -0.1563196E+01
  0.4522222E+01  0.1166232E+03 -0.1561188E+01  0.4684297E+03 -0.1033399E+00  0.3544496E+03 -0.1561188E+01
  0.4723232E+01  0.1257376E+03 -0.1558821E+01  0.4547758E+03 -0.1194709E+00  0.3821500E+03 -0.1558821E+01
  0.4924242E+01  0.1349344E+03 -0.1556080E+01  0.4411596E+03 -0.1370310E+00  0.4101008E+03 -0.1556080E+01
  0.5125252E+01  0.1442341E+03 -0.1552963E+01  0.4276361E+03 -0.1560464E+00  0.4383641E+03 -0.1552963E+01
  0.5326262E+01  0.1535800E+03 -0.1549471E+01  0.4142709E+03 -0.1765311E+00  0.4667672E+03 -0.1549471E+01
  0.5527273E+01  0.1628612E+03 -0.1545610E+01  0.4011234E+03 -0.1984935E+00  0.4949749E+03 -0.1545610E+01
  0.5728283E+01  0.1719690E+03 -0.1541399E+01  0.3882005E+03 -0.2219237E+00  0.5226548E+03 -0.1541399E+01
  0.5929293E+01  0.1807858E+03 -0.1536873E+01  0.3754813E+03 -0.2468053E+00  0.5494500E+03 -0.1536873E+01
  0.6130303E+01  0.1892765E+03 -0.1532128E+01  0.3629911E+03 -0.2731411E+00  0.5752542E+03 -0.1532128E+01
  0.6331313E+01  0.1974143E+03 -0.1527287E+01  0.3507791E+03 -0.3009598E+00  0.5999858E+03 -0.1527287E+01
  0.6532323E+01  0.2051158E+03 -0.1522470E+01  0.3388652E+03 -0.3302558E+00  0.6233904E+03 -0.1522470E+01
  0.6733334E+01  0.2122750E+03 -0.1517805E+01  0.3272514E+03 -0.3610092E+00  0.6451476E+03 -0.1517804E+01
  0.6934343E+01  0.2187886E+03 -0.1513451E+01  0.3159401E+03 -0.3932098E+00  0.6649426E+03 -0.1513451E+01
  0.7135354E+01  0.2246191E+03 -0.1509637E+01  0.3049455E+03 -0.4268453E+00  0.6826617E+03 -0.1509637E+01
  0.7336363E+01  0.2297097E+03 -0.1506579E+01  0.2942841E+03 -0.4619322E+00  0.6981312E+03 -0.1506579E+01
  0.7537374E+01  0.2340010E+03 -0.1504481E+01  0.2839520E+03 -0.4984567E+00  0.7111713E+03 -0.1504481E+01
  0.7738384E+01  0.2374641E+03 -0.1503570E+01  0.2739305E+03 -0.5363843E+00  0.7216953E+03 -0.1503570E+01
  0.7939394E+01  0.2400796E+03 -0.1504089E+01  0.2642168E+03 -0.5757336E+00  0.7296432E+03 -0.1504089E+01
  0.8140405E+01  0.2418624E+03 -0.1506264E+01  0.2548117E+03 -0.6164693E+00  0.7350585E+03 -0.1506264E+01
  0.8341414E+01  0.2428228E+03 -0.1510293E+01  0.2457275E+03 -0.6586155E+00  0.7379754E+03 -0.1510293E+01
  0.8542424E+01  0.2429976E+03 -0.1516370E+01  0.2369516E+03 -0.7021469E+00  0.7385062E+03 -0.1516370E+01
  0.8743435E+01  0.2424317E+03 -0.1524673E+01  0.2284749E+03 -0.7470633E+00  0.7367840E+03 -0.1524673E+01
  0.8944445E+01  0.2411788E+03 -0.1535339E+01  0.2202804E+03 -0.7933533E+00  0.7329745E+03 -0.1535339E+01
  0.9145455E+01  0.2392993E+03 -0.1548490E+01  0.2123674E+03 -0.8410580E+00  0.7272607E+03 -0.1548490E+01
  0.9346465E+01  0.2368638E+03 -0.1564217E+01  0.2047131E+03 -0.8901049E+00  0.7198598E+03 -0.1564217E+01
  0.9547475E+01  0.2339390E+03 -0.1582589E+01  0.1973457E+03 -0.9405245E+00  0.7109686E+03 -0.1582589E+01
  0.9748485E+01  0.2305941E+03 -0.1603651E+01  0.1902427E+03 -0.9923090E+00  0.7007998E+03 -0.1603651E+01
  0.9949495E+01  0.2268920E+03 -0.1627420E+01  0.1833811E+03 -0.1045445E+01  0.6895491E+03 -0.1627420E+01
  0.1015051E+02  0.2228967E+03 -0.1653904E+01  0.1767660E+03 -0.1099963E+01  0.6774039E+03 -0.1653904E+01
  0.1035151E+02  0.2186617E+03 -0.1683087E+01  0.1703651E+03 -0.1155861E+01  0.6645332E+03 -0.1683087E+01
  0.1055252E+02  0.2142501E+03 -0.1714960E+01  0.1642070E+03 -0.1213197E+01  0.6511243E+03 -0.1714959E+01
  0.1075354E+02  0.2096942E+03 -0.1749464E+01  0.1582430E+03 -0.1271909E+01  0.6372763E+03 -0.1749464E+01
  0.1095455E+02  0.2050423E+03 -0.1786557E+01  0.1524913E+03 -0.1331970E+01  0.6231377E+03 -0.1786557E+01
  0.1115556E+02  0.2003341E+03 -0.1826211E+01  0.1469521E+03 -0.1393518E+01  0.6088286E+03 -0.1826212E+01
  0.1135657E+02  0.1955910E+03 -0.1868344E+01  0.1415802E+03 -0.1456447E+01  0.5944124E+03 -0.1868344E+01
  0.1155758E+02  0.1908459E+03 -0.1912913E+01  0.1363857E+03 -0.1520871E+01  0.5799916E+03 -0.1912913E+01
  0.1175859E+02  0.1861219E+03 -0.1959863E+01  0.1313468E+03 -0.1586843E+01  0.5656329E+03 -0.1959863E+01
  0.1195960E+02  0.1814317E+03 -0.2009143E+01  0.1264256E+03 -0.1654403E+01  0.5513778E+03 -0.2009144E+01
  0.1216061E+02  0.1768170E+03 -0.2060688E+01  0.1216758E+03 -0.1723738E+01  0.5373532E+03 -0.2060688E+01
  0.1236162E+02  0.1722530E+03 -0.2114446E+01  0.1169764E+03 -0.1794792E+01  0.5234819E+03 -0.2114446E+01
  0.1256263E+02  0.1677580E+03 -0.2170346E+01  0.1122887E+03 -0.1867973E+01  0.5098207E+03 -0.2170346E+01
  0.1276364E+02  0.1633604E+03 -0.2228361E+01  0.1076197E+03 -0.1943532E+01  0.4964545E+03 -0.2228362E+01
  0.1296465E+02  0.1590492E+03 -0.2288423E+01  0.1027596E+03 -0.2022637E+01  0.4833512E+03 -0.2288425E+01
  0.1316566E+02  0.1548181E+03 -0.2350487E+01  0.9732944E+02 -0.2106823E+01  0.4704929E+03 -0.2350488E+01
  0.1336667E+02  0.1506884E+03 -0.2414523E+01  0.9045415E+02 -0.2201894E+01  0.4579420E+03 -0.2414523E+01
  0.1356768E+02  0.1466590E+03 -0.2480497E+01  0.7797024E+02 -0.2331583E+01  0.4456963E+03 -0.2480496E+01
  0.1376869E+02  0.1427228E+03 -0.2548419E+01  0.2330537E+02  0.1561716E+00  0.4337326E+03 -0.2548418E+01
  0.1396970E+02  0.1389216E+03 -0.2618194E+01  0.1170592E+03 -0.2203319E+01  0.4221805E+03 -0.2618194E+01
  0.1417071E+02  0.1352093E+03 -0.2689831E+01  0.1001932E+03 -0.2376921E+01  0.4108983E+03 -0.2689828E+01
  0.1437172E+02  0.1315729E+03 -0.2763357E+01  0.9321183E+02 -0.2485534E+01  0.3998463E+03 -0.2763357E+01
  0.1457273E+02  0.1280241E+03 -0.2838697E+01  0.8837617E+02 -0.2580943E+01  0.3890610E+03 -0.2838696E+01
  0.1477374E+02  0.1246038E+03 -0.2915862E+01  0.8449541E+02 -0.2672876E+01  0.3786660E+03 -0.2915859E+01
  0.1497475E+02  0.1212492E+03 -0.2994847E+01  0.8111443E+02 -0.2762868E+01  0.3684699E+03 -0.2994848E+01
  0.1517576E+02  0.1179451E+03 -0.3075697E+01  0.7809435E+02 -0.2852651E+01  0.3584286E+03 -0.3075696E+01
  0.1537677E+02  0.1147251E+03  0.3124639E+01  0.7529078E+02 -0.2942561E+01  0.3486422E+03  0.3124640E+01
  0.1557778E+02  0.1115481E+03  0.3039625E+01  0.7266847E+02 -0.3033238E+01  0.3389869E+03  0.3039626E+01
  0.1577879E+02  0.1084130E+03  0.2952151E+01  0.7017987E+02 -0.3124481E+01  0.3294584E+03  0.2952152E+01
  0.1597980E+02  0.1052681E+03  0.2861622E+01  0.6783352E+02  0.3066470E+01  0.3198999E+03  0.2861622E+01
  0.1618081E+02  0.1021013E+03  0.2766279E+01  0.6558444E+02  0.2973129E+01  0.3102755E+03  0.2766279E+01
  0.1638182E+02  0.9844633E+02  0.2661039E+01  0.6343817E+02  0.2878816E+01  0.2991650E+03  0.2661040E+01
  0.1658283E+02  0.9206971E+02  0.2517084E+01  0.6138346E+02  0.2783207E+01  0.2797802E+03  0.2517084E+01
  0.1678384E+02  0.1159015E+03  0.3101404E+01  0.5939003E+02  0.2686507E+01  0.3522814E+03  0.3101406E+01
  0.1698485E+02  0.9858847E+02  0.2507474E+01  0.5747507E+02  0.2589179E+01  0.2996114E+03  0.2507473E+01
  0.1718586E+02  0.9413888E+02  0.2376668E+01  0.5560977E+02  0.2490610E+01  0.2860845E+03  0.2376669E+01
  0.1738687E+02  0.9114656E+02  0.2267593E+01  0.5380493E+02  0.2390668E+01  0.2769894E+03  0.2267593E+01
  0.1758788E+02  0.8857224E+02  0.2163297E+01  0.5203849E+02  0.2289528E+01  0.2691649E+03  0.2163296E+01
  0.1778889E+02  0.8619110E+02  0.2060341E+01  0.5032389E+02  0.2186888E+01  0.2619280E+03  0.2060342E+01
  0.1798990E+02  0.8395837E+02  0.1957523E+01  0.4864903E+02  0.2083127E+01  0.2551417E+03  0.1957524E+01
  0.1819091E+02  0.8182487E+02  0.1854083E+01  0.4702619E+02  0.1977401E+01  0.2486582E+03  0.1854083E+01
  0.1839192E+02  0.7979056E+02  0.1749907E+01  0.4549339E+02  0.1869251E+01  0.2424758E+03  0.1749907E+01
  0.1859293E+02  0.7780383E+02  0.1644609E+01  0.4399218E+02  0.1759405E+01  0.2364380E+03  0.1644608E+01
  0.1879394E+02  0.7589355E+02  0.1538381E+01  0.4248261E+02  0.1648243E+01  0.2306325E+03  0.1538381E+01
  0.1899495E+02  0.7405320E+02  0.1431092E+01  0.4101260E+02  0.1534587E+01  0.2250395E+03  0.1431093E+01
  0.1919596E+02  0.7226372E+02  0.1322551E+01  0.3951361E+02  0.1418087E+01  0.2196009E+03  0.1322551E+01
  0.1939697E+02  0.7051758E+02  0.1212592E+01  0.3756107E+02  0.1296702E+01  0.2142939E+03  0.1212592E+01
  0.1959798E+02  0.6881750E+02  0.1101638E+01  0.3406696E+02  0.1155162E+01  0.2091273E+03  0.1101639E+01
  0.1979899E+02  0.6714971E+02  0.9894664E+00  0.7380439E+02  0.1550346E+01  0.2040591E+03  0.9894666E+00
  0.2000000E+02  0.6550864E+02  0.8758698E+00  0.4001577E+02  0.1009082E+01  0.1990718E+03  0.8758705E+00
