VARIABLES="w (rad/s)"
"abs(F   1   1)" "angle(F   1   1)"
"abs(F   1   2)" "angle(F   1   2)"
"abs(F   1   3)" "angle(F   1   3)"
Zone t="FKforce - beta =   0.000",I=   100,F=POINT
  0.1000000E+00  0.4452648E-01 -0.1570732E+01  0.6619176E+03 -0.4177051E-12  0.1353308E+00 -0.1570657E+01
  0.3010101E+00  0.4033091E+00 -0.1570798E+01  0.6615582E+03 -0.1759714E-11  0.1225789E+01 -0.1570794E+01
  0.5020202E+00  0.1121072E+01 -0.1570793E+01  0.6608391E+03  0.0000000E+00  0.3407314E+01 -0.1570798E+01
  0.7030303E+00  0.2196402E+01 -0.1570798E+01  0.6597597E+03 -0.2840863E-10  0.6675581E+01 -0.1570800E+01
  0.9040404E+00  0.3627164E+01 -0.1570799E+01  0.6583228E+03  0.1520792E-10  0.1102412E+02 -0.1570795E+01
  0.1105051E+01  0.5410514E+01 -0.1570798E+01  0.6565247E+03  0.9007885E-10  0.1644432E+02 -0.1570795E+01
  0.1306061E+01  0.7542884E+01 -0.1570795E+01  0.6543663E+03 -0.1501522E-09  0.2292526E+02 -0.1570796E+01
  0.1507071E+01  0.1001994E+02 -0.1570797E+01  0.6518485E+03 -0.1071556E-10  0.3045382E+02 -0.1570796E+01
  0.1708081E+01  0.1283667E+02 -0.1570796E+01  0.6489716E+03  0.7175373E-11  0.3901477E+02 -0.1570796E+01
  0.1909091E+01  0.1598726E+02 -0.1570796E+01  0.6457355E+03 -0.1773988E-09  0.4859033E+02 -0.1570796E+01
  0.2110101E+01  0.1946511E+02 -0.1570796E+01  0.6421397E+03  0.2465582E-10  0.5916061E+02 -0.1570796E+01
  0.2311111E+01  0.2326289E+02 -0.1570797E+01  0.6381847E+03 -0.3794260E-09  0.7070321E+02 -0.1570796E+01
  0.2512121E+01  0.2737246E+02 -0.1570796E+01  0.6338725E+03 -0.3173598E-09  0.8319335E+02 -0.1570796E+01
  0.2713131E+01  0.3178482E+02 -0.1570796E+01  0.6292015E+03  0.3019539E-09  0.9660390E+02 -0.1570796E+01
  0.2914141E+01  0.3649028E+02 -0.1570796E+01  0.6241728E+03 -0.4476273E-09  0.1109050E+03 -0.1570797E+01
  0.3115151E+01  0.4147808E+02 -0.1570796E+01  0.6187892E+03 -0.7314652E-09  0.1260644E+03 -0.1570796E+01
  0.3316161E+01  0.4673681E+02 -0.1570796E+01  0.6130492E+03 -0.2795263E-09  0.1420470E+03 -0.1570796E+01
  0.3517171E+01  0.5225413E+02 -0.1570796E+01  0.6069556E+03 -0.8040342E-09  0.1588160E+03 -0.1570796E+01
  0.3718182E+01  0.5801680E+02 -0.1570796E+01  0.6005085E+03 -0.6823915E-10  0.1763298E+03 -0.1570796E+01
  0.3919192E+01  0.6401063E+02 -0.1570796E+01  0.5937109E+03  0.7717741E-09  0.1945464E+03 -0.1570796E+01
  0.4120202E+01  0.7022064E+02 -0.1570796E+01  0.5865647E+03 -0.1536949E-08  0.2134203E+03 -0.1570796E+01
  0.4321212E+01  0.7663069E+02 -0.1570796E+01  0.5790710E+03 -0.9842823E-09  0.2329018E+03 -0.1570796E+01
  0.4522222E+01  0.8322389E+02 -0.1570796E+01  0.5712347E+03  0.1134736E-08  0.2529406E+03 -0.1570796E+01
  0.4723232E+01  0.8998253E+02 -0.1570796E+01  0.5630571E+03 -0.1654046E-08  0.2734811E+03 -0.1570796E+01
  0.4924242E+01  0.9688772E+02 -0.1570796E+01  0.5545411E+03  0.3896318E-09  0.2944676E+03 -0.1570796E+01
  0.5125252E+01  0.1039198E+03 -0.1570796E+01  0.5456934E+03  0.2075320E-08  0.3158389E+03 -0.1570796E+01
  0.5326262E+01  0.1110579E+03 -0.1570796E+01  0.5365151E+03 -0.1458134E-08  0.3375328E+03 -0.1570796E+01
  0.5527273E+01  0.1182803E+03 -0.1570796E+01  0.5270145E+03 -0.1413733E-08  0.3594835E+03 -0.1570796E+01
  0.5728283E+01  0.1255648E+03 -0.1570796E+01  0.5171954E+03  0.7202869E-10  0.3816223E+03 -0.1570796E+01
  0.5929293E+01  0.1328876E+03 -0.1570796E+01  0.5070643E+03  0.3379519E-09  0.4038777E+03 -0.1570796E+01
  0.6130303E+01  0.1402246E+03 -0.1570796E+01  0.4966272E+03  0.5565876E-08  0.4261758E+03 -0.1570796E+01
  0.6331313E+01  0.1475506E+03 -0.1570796E+01  0.4858932E+03 -0.2008725E-08  0.4484407E+03 -0.1570796E+01
  0.6532323E+01  0.1548397E+03 -0.1570796E+01  0.4748691E+03 -0.1427768E-08  0.4705923E+03 -0.1570796E+01
  0.6733334E+01  0.1620645E+03 -0.1570796E+01  0.4635649E+03  0.2700156E-08  0.4925500E+03 -0.1570796E+01
  0.6934343E+01  0.1691981E+03 -0.1570796E+01  0.4519901E+03  0.1664879E-08  0.5142297E+03 -0.1570796E+01
  0.7135354E+01  0.1762122E+03 -0.1570796E+01  0.4401549E+03  0.4502629E-08  0.5355464E+03 -0.1570796E+01
  0.7336363E+01  0.1830783E+03 -0.1570796E+01  0.4280714E+03 -0.2506319E-08  0.5564127E+03 -0.1570796E+01
  0.7537374E+01  0.1897667E+03 -0.1570796E+01  0.4157507E+03  0.4820692E-08  0.5767388E+03 -0.1570796E+01
  0.7738384E+01  0.1962480E+03 -0.1570796E+01  0.4032071E+03  0.4065226E-08  0.5964363E+03 -0.1570796E+01
  0.7939394E+01  0.2024919E+03 -0.1570796E+01  0.3904548E+03 -0.1698280E-08  0.6154120E+03 -0.1570796E+01
  0.8140405E+01  0.2084690E+03 -0.1570796E+01  0.3775082E+03 -0.4618272E-08  0.6335754E+03 -0.1570796E+01
  0.8341414E+01  0.2141478E+03 -0.1570796E+01  0.3643838E+03  0.5929650E-09  0.6508329E+03 -0.1570796E+01
  0.8542424E+01  0.2194987E+03 -0.1570796E+01  0.3510985E+03 -0.5305192E-08  0.6670953E+03 -0.1570796E+01
  0.8743435E+01  0.2244918E+03 -0.1570796E+01  0.3376698E+03 -0.3596545E-08  0.6822684E+03 -0.1570796E+01
  0.8944445E+01  0.2290968E+03 -0.1570796E+01  0.3241179E+03 -0.1137869E-07  0.6962626E+03 -0.1570796E+01
  0.9145455E+01  0.2332842E+03 -0.1570796E+01  0.3104611E+03  0.1559898E-08  0.7089877E+03 -0.1570796E+01
  0.9346465E+01  0.2370254E+03 -0.1570796E+01  0.2967218E+03 -0.1160066E-07  0.7203593E+03 -0.1570796E+01
  0.9547475E+01  0.2402930E+03 -0.1570796E+01  0.2829213E+03  0.1185051E-08  0.7302879E+03 -0.1570796E+01
  0.9748485E+01  0.2430605E+03 -0.1570796E+01  0.2690823E+03 -0.1362291E-07  0.7386960E+03 -0.1570796E+01
  0.9949495E+01  0.2453007E+03 -0.1570796E+01  0.2552285E+03  0.9137035E-08  0.7455051E+03 -0.1570796E+01
  0.1015051E+02  0.2469910E+03 -0.1570796E+01  0.2413845E+03 -0.5247225E-08  0.7506396E+03 -0.1570796E+01
  0.1035151E+02  0.2481080E+03 -0.1570796E+01  0.2275755E+03 -0.8053780E-08  0.7540347E+03 -0.1570796E+01
  0.1055252E+02  0.2486312E+03 -0.1570796E+01  0.2138279E+03 -0.1184690E-08  0.7556236E+03 -0.1570796E+01
  0.1075354E+02  0.2485420E+03 -0.1570796E+01  0.2001678E+03 -0.1879694E-07  0.7553510E+03 -0.1570796E+01
  0.1095455E+02  0.2478235E+03 -0.1570796E+01  0.1866234E+03  0.8184233E-08  0.7531666E+03 -0.1570796E+01
  0.1115556E+02  0.2464625E+03 -0.1570796E+01  0.1732218E+03 -0.1376378E-08  0.7490307E+03 -0.1570796E+01
  0.1135657E+02  0.2444479E+03 -0.1570796E+01  0.1599917E+03  0.1201469E-07  0.7429068E+03 -0.1570796E+01
  0.1155758E+02  0.2417712E+03 -0.1570796E+01  0.1469619E+03 -0.5171130E-08  0.7347723E+03 -0.1570796E+01
  0.1175859E+02  0.2384275E+03 -0.1570796E+01  0.1341607E+03 -0.2593472E-07  0.7246099E+03 -0.1570796E+01
  0.1195960E+02  0.2344157E+03 -0.1570796E+01  0.1216170E+03 -0.3185657E-08  0.7124163E+03 -0.1570796E+01
  0.1216061E+02  0.2297374E+03 -0.1570796E+01  0.1093598E+03 -0.2861421E-08  0.6981990E+03 -0.1570796E+01
  0.1236162E+02  0.2243984E+03 -0.1570796E+01  0.9741755E+02 -0.5124219E-08  0.6819731E+03 -0.1570796E+01
  0.1256263E+02  0.2184088E+03 -0.1570796E+01  0.8581830E+02  0.2396179E-07  0.6637704E+03 -0.1570796E+01
  0.1276364E+02  0.2117821E+03 -0.1570796E+01  0.7458968E+02  0.4814580E-07  0.6436302E+03 -0.1570796E+01
  0.1296465E+02  0.2045364E+03 -0.1570796E+01  0.6375867E+02 -0.1752839E-08  0.6216094E+03 -0.1570796E+01
  0.1316566E+02  0.1966939E+03 -0.1570796E+01  0.5335134E+02 -0.4189537E-08  0.5977766E+03 -0.1570796E+01
  0.1336667E+02  0.1882816E+03 -0.1570796E+01  0.4339259E+02  0.2884589E-07  0.5722114E+03 -0.1570796E+01
  0.1356768E+02  0.1793305E+03 -0.1570796E+01  0.3390620E+02 -0.5867084E-07  0.5450095E+03 -0.1570796E+01
  0.1376869E+02  0.1698763E+03 -0.1570796E+01  0.2491421E+02 -0.6908043E-07  0.5162775E+03 -0.1570796E+01
  0.1396970E+02  0.1599585E+03 -0.1570796E+01  0.1643717E+02  0.1133191E-07  0.4861370E+03 -0.1570796E+01
  0.1417071E+02  0.1496212E+03 -0.1570796E+01  0.8493883E+01  0.2552565E-06  0.4547226E+03 -0.1570796E+01
  0.1437172E+02  0.1389132E+03 -0.1570796E+01  0.1101079E+01  0.7443277E-06  0.4221807E+03 -0.1570796E+01
  0.1457273E+02  0.1278864E+03 -0.1570796E+01  0.5726916E+01  0.3141592E+01  0.3886703E+03 -0.1570796E+01
  0.1477374E+02  0.1165972E+03 -0.1570796E+01  0.1197802E+02  0.3141593E+01  0.3543633E+03 -0.1570796E+01
  0.1497475E+02  0.1051051E+03 -0.1570796E+01  0.1764294E+02 -0.3141593E+01  0.3194378E+03 -0.1570796E+01
  0.1517576E+02  0.9347237E+02 -0.1570796E+01  0.2271473E+02  0.3141593E+01  0.2840874E+03 -0.1570796E+01
  0.1537677E+02  0.8176497E+02 -0.1570796E+01  0.2718981E+02 -0.3141593E+01  0.2485088E+03 -0.1570796E+01
  0.1557778E+02  0.7005075E+02 -0.1570796E+01  0.3106752E+02 -0.3141593E+01  0.2129092E+03 -0.1570796E+01
  0.1577879E+02  0.5839935E+02 -0.1570796E+01  0.3435013E+02  0.3141593E+01  0.1775012E+03 -0.1570796E+01
  0.1597980E+02  0.4688175E+02 -0.1570796E+01  0.3704330E+02  0.3141593E+01  0.1424997E+03 -0.1570796E+01
  0.1618081E+02  0.3556997E+02 -0.1570796E+01  0.3915635E+02  0.3141593E+01  0.1081237E+03 -0.1570796E+01
  0.1638182E+02  0.2453606E+02 -0.1570796E+01  0.4070135E+02  0.3141593E+01  0.7459222E+02 -0.1570796E+01
  0.1658283E+02  0.1385151E+02 -0.1570796E+01  0.4169426E+02  0.3141593E+01  0.4212226E+02 -0.1570796E+01
  0.1678384E+02  0.3586589E+01 -0.1570795E+01  0.4215416E+02 -0.3141593E+01  0.1092762E+02 -0.1570796E+01
  0.1698485E+02  0.6190307E+01  0.1570796E+01  0.4210370E+02  0.3141593E+01  0.1878395E+02  0.1570796E+01
  0.1718586E+02  0.1541355E+02  0.1570796E+01  0.4156851E+02  0.3141593E+01  0.4681290E+02  0.1570796E+01
  0.1738687E+02  0.2402063E+02  0.1570796E+01  0.4057759E+02  0.3141593E+01  0.7296970E+02  0.1570796E+01
  0.1758788E+02  0.3195375E+02  0.1570796E+01  0.3916291E+02  0.3141593E+01  0.9707825E+02  0.1570796E+01
  0.1778889E+02  0.3915969E+02  0.1570796E+01  0.3735903E+02  0.3141593E+01  0.1189769E+03  0.1570796E+01
  0.1798990E+02  0.4559103E+02  0.1570796E+01  0.3520343E+02  0.3141593E+01  0.1385212E+03  0.1570796E+01
  0.1819091E+02  0.5120665E+02  0.1570796E+01  0.3273558E+02  0.3141593E+01  0.1555878E+03  0.1570796E+01
  0.1839192E+02  0.5597283E+02  0.1570796E+01  0.2999724E+02  0.3141593E+01  0.1700726E+03  0.1570796E+01
  0.1859293E+02  0.5986340E+02  0.1570796E+01  0.2703146E+02 -0.3141593E+01  0.1818965E+03  0.1570796E+01
  0.1879394E+02  0.6286030E+02  0.1570796E+01  0.2388298E+02 -0.3141593E+01  0.1910047E+03  0.1570796E+01
  0.1899495E+02  0.6495469E+02  0.1570796E+01  0.2059719E+02 -0.3141593E+01  0.1973702E+03  0.1570796E+01
  0.1919596E+02  0.6614659E+02  0.1570796E+01  0.1722003E+02 -0.3141593E+01  0.2009931E+03  0.1570796E+01
  0.1939697E+02  0.6644537E+02  0.1570796E+01  0.1379736E+02 -0.3141593E+01  0.2019017E+03  0.1570796E+01
  0.1959798E+02  0.6587026E+02  0.1570796E+01  0.1037462E+02 -0.3141593E+01  0.2001553E+03  0.1570796E+01
  0.1979899E+02  0.6445033E+02  0.1570796E+01  0.6996290E+01 -0.3141593E+01  0.1958417E+03  0.1570796E+01
  0.2000000E+02  0.6222414E+02  0.1570796E+01  0.3705421E+01 -0.3141592E+01  0.1890778E+03  0.1570796E+01
