 VARIABLES="Time (s)"
"AddedMass    1" "IRF    1"
"AddedMass    2" "IRF    2"
"AddedMass    3" "IRF    3"
Zone t="DoF    1",I=   800,F=POINT
  0.0000000E+00  0.1211185E+01  0.1020188E+03 -0.5968698E-07 -0.5885601E-05  0.3681388E+01  0.3100377E+03
  0.1000000E-01  0.1211185E+01  0.1010426E+03 -0.5968698E-07 -0.5833269E-05  0.3681388E+01  0.3070710E+03
  0.2000000E-01  0.1211185E+01  0.9813746E+02 -0.5968698E-07 -0.5677596E-05  0.3681388E+01  0.2982422E+03
  0.3000000E-01  0.1211185E+01  0.9337292E+02 -0.5968698E-07 -0.5422512E-05  0.3681388E+01  0.2837629E+03
  0.4000000E-01  0.1211185E+01  0.8686286E+02 -0.5968698E-07 -0.5074454E-05  0.3681388E+01  0.2639789E+03
  0.5000000E-01  0.1211185E+01  0.7876227E+02 -0.5968698E-07 -0.4642194E-05  0.3681388E+01  0.2393613E+03
  0.6000000E-01  0.1211185E+01  0.6926302E+02 -0.5968698E-07 -0.4136596E-05  0.3681388E+01  0.2104932E+03
  0.7000000E-01  0.1211185E+01  0.5858863E+02 -0.5968698E-07 -0.3570339E-05  0.3681388E+01  0.1780538E+03
  0.8000000E-01  0.1211185E+01  0.4698809E+02 -0.5968698E-07 -0.2957572E-05  0.3681388E+01  0.1428000E+03
  0.9000000E-01  0.1211185E+01  0.3472929E+02 -0.5968698E-07 -0.2313537E-05  0.3681388E+01  0.1055455E+03
  0.9999999E-01  0.1211185E+01  0.2209159E+02 -0.5968698E-07 -0.1654167E-05  0.3681388E+01  0.6713959E+02
  0.1100000E+00  0.1211185E+01  0.9358613E+01 -0.5968698E-07 -0.9956620E-06  0.3681388E+01  0.2844411E+02
  0.1200000E+00  0.1211185E+01 -0.3189336E+01 -0.5968698E-07 -0.3540542E-06  0.3681388E+01 -0.9689115E+01
  0.1300000E+00  0.1211185E+01 -0.1528253E+02 -0.5968698E-07  0.2552060E-06  0.3681388E+01 -0.4644041E+02
  0.1400000E+00  0.1211185E+01 -0.2666867E+02 -0.5968698E-07  0.8176682E-06  0.3681388E+01 -0.8104305E+02
  0.1500000E+00  0.1211185E+01 -0.3711913E+02 -0.5968698E-07  0.1320254E-05  0.3681388E+01 -0.1128022E+03
  0.1600000E+00  0.1211185E+01 -0.4643452E+02 -0.5968698E-07  0.1751602E-05  0.3681388E+01 -0.1411119E+03
  0.1700000E+00  0.1211185E+01 -0.5444915E+02 -0.5968698E-07  0.2102360E-05  0.3681388E+01 -0.1654687E+03
  0.1800000E+00  0.1211185E+01 -0.6103465E+02 -0.5968698E-07  0.2365428E-05  0.3681388E+01 -0.1854825E+03
  0.1900000E+00  0.1211185E+01 -0.6610237E+02 -0.5968698E-07  0.2536131E-05  0.3681388E+01 -0.2008838E+03
  0.2000000E+00  0.1211185E+01 -0.6960460E+02 -0.5968698E-07  0.2612328E-05  0.3681388E+01 -0.2115276E+03
  0.2100000E+00  0.1211185E+01 -0.7153456E+02 -0.5968698E-07  0.2594461E-05  0.3681388E+01 -0.2173932E+03
  0.2200000E+00  0.1211185E+01 -0.7192531E+02 -0.5968698E-07  0.2485519E-05  0.3681388E+01 -0.2185813E+03
  0.2300000E+00  0.1211185E+01 -0.7084758E+02 -0.5968698E-07  0.2290938E-05  0.3681388E+01 -0.2153067E+03
  0.2400000E+00  0.1211185E+01 -0.6840635E+02 -0.5968698E-07  0.2018441E-05  0.3681388E+01 -0.2078885E+03
  0.2500000E+00  0.1211185E+01 -0.6473692E+02 -0.5968698E-07  0.1677804E-05  0.3681388E+01 -0.1967377E+03
  0.2600000E+00  0.1211185E+01 -0.5999985E+02 -0.5968698E-07  0.1280573E-05  0.3681388E+01 -0.1823423E+03
  0.2700000E+00  0.1211185E+01 -0.5437551E+02 -0.5968698E-07  0.8397316E-06  0.3681388E+01 -0.1652505E+03
  0.2800000E+00  0.1211185E+01 -0.4805824E+02 -0.5968698E-07  0.3693301E-06  0.3681388E+01 -0.1460528E+03
  0.2900000E+00  0.1211185E+01 -0.4125025E+02 -0.5968698E-07 -0.1159139E-06  0.3681388E+01 -0.1253638E+03
  0.3000000E+00  0.1211185E+01 -0.3415553E+02 -0.5968698E-07 -0.6010395E-06  0.3681388E+01 -0.1038034E+03
  0.3100000E+00  0.1211185E+01 -0.2697379E+02 -0.5968698E-07 -0.1071254E-05  0.3681388E+01 -0.8197841E+02
  0.3200000E+00  0.1211185E+01 -0.1989509E+02 -0.5968698E-07 -0.1512359E-05  0.3681388E+01 -0.6046646E+02
  0.3300000E+00  0.1211185E+01 -0.1309451E+02 -0.5968698E-07 -0.1911152E-05  0.3681388E+01 -0.3979964E+02
  0.3400000E+00  0.1211185E+01 -0.6727882E+01 -0.5968698E-07 -0.2255789E-05  0.3681388E+01 -0.2045150E+02
  0.3500000E+00  0.1211185E+01 -0.9280930E+00 -0.5968698E-07 -0.2536120E-05  0.3681388E+01 -0.2825993E+01
  0.3600000E+00  0.1211185E+01  0.4197713E+01 -0.5968698E-07 -0.2743973E-05  0.3681388E+01  0.1275149E+02
  0.3700000E+00  0.1211185E+01  0.8570102E+01 -0.5968698E-07 -0.2873386E-05  0.3681388E+01  0.2603940E+02
  0.3800000E+00  0.1211185E+01  0.1213811E+02 -0.5968698E-07 -0.2920754E-05  0.3681388E+01  0.3688284E+02
  0.3900000E+00  0.1211185E+01  0.1487940E+02 -0.5968698E-07 -0.2884944E-05  0.3681388E+01  0.4521394E+02
  0.4000000E+00  0.1211185E+01  0.1679922E+02 -0.5968698E-07 -0.2767305E-05  0.3681388E+01  0.5104868E+02
  0.4100000E+00  0.1211185E+01  0.1792870E+02 -0.5968698E-07 -0.2571630E-05  0.3681388E+01  0.5448164E+02
  0.4200000E+00  0.1211185E+01  0.1832229E+02 -0.5968698E-07 -0.2304040E-05  0.3681388E+01  0.5567822E+02
  0.4300000E+00  0.1211185E+01  0.1805456E+02 -0.5968698E-07 -0.1972792E-05  0.3681388E+01  0.5486510E+02
  0.4400000E+00  0.1211185E+01  0.1721655E+02 -0.5968698E-07 -0.1588047E-05  0.3681388E+01  0.5231891E+02
  0.4500000E+00  0.1211185E+01  0.1591166E+02 -0.5968698E-07 -0.1161559E-05  0.3681388E+01  0.4835389E+02
  0.4600000E+00  0.1211185E+01  0.1425137E+02 -0.5968698E-07 -0.7063284E-06  0.3681388E+01  0.4330877E+02
  0.4700000E+00  0.1211185E+01  0.1235082E+02 -0.5968698E-07 -0.2362261E-06  0.3681388E+01  0.3753352E+02
  0.4800000E+00  0.1211185E+01  0.1032461E+02 -0.5968698E-07  0.2344238E-06  0.3681388E+01  0.3137631E+02
  0.4900000E+00  0.1211185E+01  0.8282608E+01 -0.5968698E-07  0.6912700E-06  0.3681388E+01  0.2517109E+02
  0.5000000E+00  0.1211185E+01  0.6326352E+01 -0.5968698E-07  0.1120356E-05  0.3681388E+01  0.1922643E+02
  0.5100000E+00  0.1211185E+01  0.4545762E+01 -0.5968698E-07  0.1508533E-05  0.3681388E+01  0.1381550E+02
  0.5200000E+00  0.1211185E+01  0.3016395E+01 -0.5968698E-07  0.1843868E-05  0.3681388E+01  0.9168049E+01
  0.5300000E+00  0.1211185E+01  0.1797510E+01 -0.5968698E-07  0.2115997E-05  0.3681388E+01  0.5464045E+01
  0.5400000E+00  0.1211185E+01  0.9306446E+00 -0.5968698E-07  0.2316446E-05  0.3681388E+01  0.2829828E+01
  0.5500000E+00  0.1211185E+01  0.4390049E+00 -0.5968698E-07  0.2438892E-05  0.3681388E+01  0.1335821E+01
  0.5600000E+00  0.1211185E+01  0.3274560E+00 -0.5968698E-07  0.2479371E-05  0.3681388E+01  0.9968768E+00
  0.5700000E+00  0.1211185E+01  0.5833033E+00 -0.5968698E-07  0.2436417E-05  0.3681388E+01  0.1774459E+01
  0.5800000E+00  0.1211185E+01  0.1177671E+01 -0.5968698E-07  0.2311123E-05  0.3681388E+01  0.3580731E+01
  0.5900000E+00  0.1211185E+01  0.2067333E+01 -0.5968698E-07  0.2107135E-05  0.3681388E+01  0.6284392E+01
  0.6000000E+00  0.1211185E+01  0.3197130E+01 -0.5968698E-07  0.1830572E-05  0.3681388E+01  0.9717783E+01
  0.6100000E+00  0.1211185E+01  0.4502702E+01 -0.5968698E-07  0.1489872E-05  0.3681388E+01  0.1368535E+02
  0.6200000E+00  0.1211185E+01  0.5913442E+01 -0.5968698E-07  0.1095571E-05  0.3681388E+01  0.1797253E+02
  0.6300000E+00  0.1211185E+01  0.7355620E+01 -0.5968698E-07  0.6600164E-06  0.3681388E+01  0.2235525E+02
  0.6400000E+00  0.1211185E+01  0.8755515E+01 -0.5968698E-07  0.1970311E-06  0.3681388E+01  0.2660948E+02
  0.6500000E+00  0.1211185E+01  0.1004240E+02 -0.5968698E-07 -0.2784668E-06  0.3681388E+01  0.3052025E+02
  0.6600000E+00  0.1211185E+01  0.1115131E+02 -0.5968698E-07 -0.7508866E-06  0.3681388E+01  0.3389019E+02
  0.6700000E+00  0.1211185E+01  0.1202559E+02 -0.5968698E-07 -0.1204388E-05  0.3681388E+01  0.3654712E+02
  0.6800000E+00  0.1211185E+01  0.1261894E+02 -0.5968698E-07 -0.1623360E-05  0.3681388E+01  0.3835031E+02
  0.6900000E+00  0.1211185E+01  0.1289701E+02 -0.5968698E-07 -0.1992837E-05  0.3681388E+01  0.3919540E+02
  0.7000000E+00  0.1211185E+01  0.1283859E+02 -0.5968698E-07 -0.2298958E-05  0.3681388E+01  0.3901788E+02
  0.7100000E+00  0.1211185E+01  0.1243610E+02 -0.5968698E-07 -0.2529355E-05  0.3681388E+01  0.3779473E+02
  0.7200000E+00  0.1211185E+01  0.1169566E+02 -0.5968698E-07 -0.2673526E-05  0.3681388E+01  0.3554457E+02
  0.7300000E+00  0.1211185E+01  0.1063660E+02 -0.5968698E-07 -0.2723153E-05  0.3681388E+01  0.3232613E+02
  0.7400000E+00  0.1211185E+01  0.9290424E+01 -0.5968698E-07 -0.2672356E-05  0.3681388E+01  0.2823514E+02
  0.7500000E+00  0.1211185E+01  0.7699455E+01 -0.5968698E-07 -0.2517893E-05  0.3681388E+01  0.2340020E+02
  0.7600000E+00  0.1211185E+01  0.5914900E+01 -0.5968698E-07 -0.2259276E-05  0.3681388E+01  0.1797696E+02
  0.7700000E+00  0.1211185E+01  0.3994813E+01 -0.5968698E-07 -0.1898814E-05  0.3681388E+01  0.1214179E+02
  0.7800000E+00  0.1211185E+01  0.2001732E+01 -0.5968698E-07 -0.1441593E-05  0.3681388E+01  0.6084775E+01
  0.7900000E+00  0.1211185E+01  0.2291908E-03 -0.5968698E-07 -0.8953526E-06  0.3681388E+01  0.2150447E-02
  0.8000000E+00  0.1211185E+01 -0.1945561E+01 -0.5968698E-07 -0.2703202E-06  0.3681388E+01 -0.5911199E+01
  0.8100000E+00  0.1211185E+01 -0.3774352E+01 -0.5968698E-07  0.4210548E-06  0.3681388E+01 -0.1146903E+02
  0.8200000E+00  0.1211185E+01 -0.5429929E+01 -0.5968698E-07  0.1164392E-05  0.3681388E+01 -0.1650047E+02
  0.8300000E+00  0.1211185E+01 -0.6863157E+01 -0.5968698E-07  0.1943772E-05  0.3681388E+01 -0.2085624E+02
  0.8400000E+00  0.1211185E+01 -0.8033713E+01 -0.5968698E-07  0.2742129E-05  0.3681388E+01 -0.2441378E+02
  0.8500000E+00  0.1211185E+01 -0.8911350E+01 -0.5968698E-07  0.3541699E-05  0.3681388E+01 -0.2708116E+02
  0.8600000E+00  0.1211185E+01 -0.9476836E+01 -0.5968698E-07  0.4324476E-05  0.3681388E+01 -0.2879993E+02
  0.8700000E+00  0.1211185E+01 -0.9722433E+01 -0.5968698E-07  0.5072692E-05  0.3681388E+01 -0.2954656E+02
  0.8800000E+00  0.1211185E+01 -0.9651908E+01 -0.5968698E-07  0.5769262E-05  0.3681388E+01 -0.2933252E+02
  0.8900000E+00  0.1211185E+01 -0.9280193E+01 -0.5968698E-07  0.6398256E-05  0.3681388E+01 -0.2820313E+02
  0.9000000E+00  0.1211185E+01 -0.8632494E+01 -0.5968698E-07  0.6945295E-05  0.3681388E+01 -0.2623503E+02
  0.9100000E+00  0.1211185E+01 -0.7743173E+01 -0.5968698E-07  0.7397942E-05  0.3681388E+01 -0.2353262E+02
  0.9200000E+00  0.1211185E+01 -0.6654240E+01 -0.5968698E-07  0.7745997E-05  0.3681388E+01 -0.2022358E+02
  0.9300000E+00  0.1211185E+01 -0.5413610E+01 -0.5968698E-07  0.7981786E-05  0.3681388E+01 -0.1645346E+02
  0.9400000E+00  0.1211185E+01 -0.4073143E+01 -0.5968698E-07  0.8100333E-05  0.3681388E+01 -0.1237993E+02
  0.9500000E+00  0.1211185E+01 -0.2686668E+01 -0.5968698E-07  0.8099498E-05  0.3681388E+01 -0.8166499E+01
  0.9600000E+00  0.1211185E+01 -0.1307865E+01 -0.5968698E-07  0.7980007E-05  0.3681388E+01 -0.3976371E+01
  0.9700000E+00  0.1211185E+01  0.1166399E-01 -0.5968698E-07  0.7745425E-05  0.3681388E+01  0.3368589E-01
  0.9800000E+00  0.1211185E+01  0.1224333E+01 -0.5968698E-07  0.7402057E-05  0.3681388E+01  0.3719050E+01
  0.9899999E+00  0.1211185E+01  0.2288226E+01 -0.5968698E-07  0.6958737E-05  0.3681388E+01  0.6952354E+01
  0.1000000E+01  0.1211185E+01  0.3168511E+01 -0.5968698E-07  0.6426623E-05  0.3681388E+01  0.9627679E+01
  0.1010000E+01  0.1211185E+01  0.3838538E+01 -0.5968698E-07  0.5818848E-05  0.3681388E+01  0.1166411E+02
  0.1020000E+01  0.1211185E+01  0.4280678E+01 -0.5968698E-07  0.5150199E-05  0.3681388E+01  0.1300801E+02
  0.1030000E+01  0.1211185E+01  0.4486693E+01 -0.5968698E-07  0.4436672E-05  0.3681388E+01  0.1363436E+02
  0.1040000E+01  0.1211185E+01  0.4457786E+01 -0.5968698E-07  0.3695084E-05  0.3681388E+01  0.1354680E+02
  0.1050000E+01  0.1211185E+01  0.4204312E+01 -0.5968698E-07  0.2942588E-05  0.3681388E+01  0.1277677E+02
  0.1060000E+01  0.1211185E+01  0.3745098E+01 -0.5968698E-07  0.2196254E-05  0.3681388E+01  0.1138153E+02
  0.1070000E+01  0.1211185E+01  0.3106514E+01 -0.5968698E-07  0.1472588E-05  0.3681388E+01  0.9441150E+01
  0.1080000E+01  0.1211185E+01  0.2321224E+01 -0.5968698E-07  0.7871258E-06  0.3681388E+01  0.7054924E+01
  0.1090000E+01  0.1211185E+01  0.1426709E+01 -0.5968698E-07  0.1540240E-06  0.3681388E+01  0.4336727E+01
  0.1100000E+01  0.1211185E+01  0.4637858E+00 -0.5968698E-07 -0.4142838E-06  0.3681388E+01  0.1410610E+01
  0.1110000E+01  0.1211185E+01 -0.5251608E+00 -0.5968698E-07 -0.9074138E-06  0.3681388E+01 -0.1594638E+01
  0.1120000E+01  0.1211185E+01 -0.1497883E+01 -0.5968698E-07 -0.1317270E-05  0.3681388E+01 -0.4550625E+01
  0.1130000E+01  0.1211185E+01 -0.2413839E+01 -0.5968698E-07 -0.1638216E-05  0.3681388E+01 -0.7334172E+01
  0.1140000E+01  0.1211185E+01 -0.3235804E+01 -0.5968698E-07 -0.1867211E-05  0.3681388E+01 -0.9832118E+01
  0.1150000E+01  0.1211185E+01 -0.3931239E+01 -0.5968698E-07 -0.2003829E-05  0.3681388E+01 -0.1194561E+02
  0.1160000E+01  0.1211185E+01 -0.4473418E+01 -0.5968698E-07 -0.2050248E-05  0.3681388E+01 -0.1359340E+02
  0.1170000E+01  0.1211185E+01 -0.4842363E+01 -0.5968698E-07 -0.2011132E-05  0.3681388E+01 -0.1471478E+02
  0.1180000E+01  0.1211185E+01 -0.5025452E+01 -0.5968698E-07 -0.1893487E-05  0.3681388E+01 -0.1527141E+02
  0.1190000E+01  0.1211185E+01 -0.5017793E+01 -0.5968698E-07 -0.1706396E-05  0.3681388E+01 -0.1524837E+02
  0.1200000E+01  0.1211185E+01 -0.4822138E+01 -0.5968698E-07 -0.1460771E-05  0.3681388E+01 -0.1465405E+02
  0.1210000E+01  0.1211185E+01 -0.4448672E+01 -0.5968698E-07 -0.1169011E-05  0.3681388E+01 -0.1351939E+02
  0.1220000E+01  0.1211185E+01 -0.3914426E+01 -0.5968698E-07 -0.8446054E-06  0.3681388E+01 -0.1189614E+02
  0.1230000E+01  0.1211185E+01 -0.3242427E+01 -0.5968698E-07 -0.5017992E-06  0.3681388E+01 -0.9854241E+01
  0.1240000E+01  0.1211185E+01 -0.2460715E+01 -0.5968698E-07 -0.1551192E-06  0.3681388E+01 -0.7478925E+01
  0.1250000E+01  0.1211185E+01 -0.1601006E+01 -0.5968698E-07  0.1809946E-06  0.3681388E+01 -0.4866543E+01
  0.1260000E+01  0.1211185E+01 -0.6974640E+00 -0.5968698E-07  0.4926043E-06  0.3681388E+01 -0.2120936E+01
  0.1270000E+01  0.1211185E+01  0.2146931E+00 -0.5968698E-07  0.7666887E-06  0.3681388E+01  0.6508894E+00
  0.1280000E+01  0.1211185E+01  0.1100703E+01 -0.5968698E-07  0.9914552E-06  0.3681388E+01  0.3343305E+01
  0.1290000E+01  0.1211185E+01  0.1927532E+01 -0.5968698E-07  0.1156701E-05  0.3681388E+01  0.5855929E+01
  0.1300000E+01  0.1211185E+01  0.2665174E+01 -0.5968698E-07  0.1254061E-05  0.3681388E+01  0.8097566E+01
  0.1310000E+01  0.1211185E+01  0.3287785E+01 -0.5968698E-07  0.1277236E-05  0.3681388E+01  0.9989684E+01
  0.1320000E+01  0.1211185E+01  0.3774556E+01 -0.5968698E-07  0.1222157E-05  0.3681388E+01  0.1146904E+02
  0.1330000E+01  0.1211185E+01  0.4110495E+01 -0.5968698E-07  0.1087070E-05  0.3681388E+01  0.1249009E+02
  0.1340000E+01  0.1211185E+01  0.4286828E+01 -0.5968698E-07  0.8725788E-06  0.3681388E+01  0.1302614E+02
  0.1350000E+01  0.1211185E+01  0.4301250E+01 -0.5968698E-07  0.5816119E-06  0.3681388E+01  0.1307020E+02
  0.1360000E+01  0.1211185E+01  0.4157849E+01 -0.5968698E-07  0.2193187E-06  0.3681388E+01  0.1263467E+02
  0.1370000E+01  0.1211185E+01  0.3866800E+01 -0.5968698E-07 -0.2070753E-06  0.3681388E+01  0.1175048E+02
  0.1380000E+01  0.1211185E+01  0.3443869E+01 -0.5968698E-07 -0.6885060E-06  0.3681388E+01  0.1046553E+02
  0.1390000E+01  0.1211185E+01  0.2909568E+01 -0.5968698E-07 -0.1214293E-05  0.3681388E+01  0.8842129E+01
  0.1400000E+01  0.1211185E+01  0.2288300E+01 -0.5968698E-07 -0.1772468E-05  0.3681388E+01  0.6954444E+01
  0.1410000E+01  0.1211185E+01  0.1607312E+01 -0.5968698E-07 -0.2350122E-05  0.3681388E+01  0.4885268E+01
  0.1420000E+01  0.1211185E+01  0.8954826E+00 -0.5968698E-07 -0.2933717E-05  0.3681388E+01  0.2722344E+01
  0.1430000E+01  0.1211185E+01  0.1821917E+00 -0.5968698E-07 -0.3509523E-05  0.3681388E+01  0.5549407E+00
  0.1440000E+01  0.1211185E+01 -0.5039597E+00 -0.5968698E-07 -0.4063920E-05  0.3681388E+01 -0.1530018E+01
  0.1450000E+01  0.1211185E+01 -0.1136164E+01 -0.5968698E-07 -0.4583842E-05  0.3681388E+01 -0.3451066E+01
  0.1460000E+01  0.1211185E+01 -0.1690545E+01 -0.5968698E-07 -0.5057058E-05  0.3681388E+01 -0.5135676E+01
  0.1470000E+01  0.1211185E+01 -0.2147000E+01 -0.5968698E-07 -0.5472550E-05  0.3681388E+01 -0.6522742E+01
  0.1480000E+01  0.1211185E+01 -0.2489944E+01 -0.5968698E-07 -0.5820777E-05  0.3681388E+01 -0.7564911E+01
  0.1490000E+01  0.1211185E+01 -0.2708867E+01 -0.5968698E-07 -0.6093926E-05  0.3681388E+01 -0.8230236E+01
  0.1500000E+01  0.1211185E+01 -0.2798600E+01 -0.5968698E-07 -0.6286129E-05  0.3681388E+01 -0.8503017E+01
  0.1510000E+01  0.1211185E+01 -0.2759441E+01 -0.5968698E-07 -0.6393585E-05  0.3681388E+01 -0.8384150E+01
  0.1520000E+01  0.1211185E+01 -0.2597023E+01 -0.5968698E-07 -0.6414668E-05  0.3681388E+01 -0.7890758E+01
  0.1530000E+01  0.1211185E+01 -0.2321966E+01 -0.5968698E-07 -0.6349951E-05  0.3681388E+01 -0.7055106E+01
  0.1540000E+01  0.1211185E+01 -0.1949317E+01 -0.5968698E-07 -0.6202185E-05  0.3681388E+01 -0.5922898E+01
  0.1550000E+01  0.1211185E+01 -0.1497898E+01 -0.5968698E-07 -0.5976190E-05  0.3681388E+01 -0.4551357E+01
  0.1560000E+01  0.1211185E+01 -0.9893422E+00 -0.5968698E-07 -0.5678755E-05  0.3681388E+01 -0.3006185E+01
  0.1570000E+01  0.1211185E+01 -0.4472787E+00 -0.5968698E-07 -0.5318402E-05  0.3681388E+01 -0.1359198E+01
  0.1580000E+01  0.1211185E+01  0.1038185E+00 -0.5968698E-07 -0.4905178E-05  0.3681388E+01  0.3152460E+00
  0.1590000E+01  0.1211185E+01  0.6395619E+00 -0.5968698E-07 -0.4450372E-05  0.3681388E+01  0.1943038E+01
  0.1600000E+01  0.1211185E+01  0.1136715E+01 -0.5968698E-07 -0.3966187E-05  0.3681388E+01  0.3453580E+01
  0.1610000E+01  0.1211185E+01  0.1574155E+01 -0.5968698E-07 -0.3465445E-05  0.3681388E+01  0.4782676E+01
  0.1620000E+01  0.1211185E+01  0.1933646E+01 -0.5968698E-07 -0.2961208E-05  0.3681388E+01  0.5874931E+01
  0.1630000E+01  0.1211185E+01  0.2200666E+01 -0.5968698E-07 -0.2466451E-05  0.3681388E+01  0.6686218E+01
  0.1640000E+01  0.1211185E+01  0.2364878E+01 -0.5968698E-07 -0.1993709E-05  0.3681388E+01  0.7185113E+01
  0.1650000E+01  0.1211185E+01  0.2420479E+01 -0.5968698E-07 -0.1554729E-05  0.3681388E+01  0.7353998E+01
  0.1660000E+01  0.1211185E+01  0.2366488E+01 -0.5968698E-07 -0.1160190E-05  0.3681388E+01  0.7189895E+01
  0.1670000E+01  0.1211185E+01  0.2206582E+01 -0.5968698E-07 -0.8193971E-06  0.3681388E+01  0.6703975E+01
  0.1680000E+01  0.1211185E+01  0.1948983E+01 -0.5968698E-07 -0.5400611E-06  0.3681388E+01  0.5921213E+01
  0.1690000E+01  0.1211185E+01  0.1606008E+01 -0.5968698E-07 -0.3280794E-06  0.3681388E+01  0.4879052E+01
  0.1700000E+01  0.1211185E+01  0.1193479E+01 -0.5968698E-07 -0.1874040E-06  0.3681388E+01  0.3625563E+01
  0.1710000E+01  0.1211185E+01  0.7300661E+00 -0.5968698E-07 -0.1199247E-06  0.3681388E+01  0.2217486E+01
  0.1720000E+01  0.1211185E+01  0.2364399E+00 -0.5968698E-07 -0.1254579E-06  0.3681388E+01  0.7176155E+00
  0.1730000E+01  0.1211185E+01 -0.2656565E+00 -0.5968698E-07 -0.2017294E-06  0.3681388E+01 -0.8079707E+00
  0.1740000E+01  0.1211185E+01 -0.7542552E+00 -0.5968698E-07 -0.3444569E-06  0.3681388E+01 -0.2292515E+01
  0.1750000E+01  0.1211185E+01 -0.1208152E+01 -0.5968698E-07 -0.5474695E-06  0.3681388E+01 -0.3671606E+01
  0.1760000E+01  0.1211185E+01 -0.1607805E+01 -0.5968698E-07 -0.8028962E-06  0.3681388E+01 -0.4885837E+01
  0.1770000E+01  0.1211185E+01 -0.1936101E+01 -0.5968698E-07 -0.1101359E-05  0.3681388E+01 -0.5883245E+01
  0.1780000E+01  0.1211185E+01 -0.2179078E+01 -0.5968698E-07 -0.1432237E-05  0.3681388E+01 -0.6621375E+01
  0.1790000E+01  0.1211185E+01 -0.2326499E+01 -0.5968698E-07 -0.1783981E-05  0.3681388E+01 -0.7069150E+01
  0.1800000E+01  0.1211185E+01 -0.2372277E+01 -0.5968698E-07 -0.2144396E-05  0.3681388E+01 -0.7208065E+01
  0.1810000E+01  0.1211185E+01 -0.2314644E+01 -0.5968698E-07 -0.2500998E-05  0.3681388E+01 -0.7032747E+01
  0.1820000E+01  0.1211185E+01 -0.2156267E+01 -0.5968698E-07 -0.2841340E-05  0.3681388E+01 -0.6551330E+01
  0.1830000E+01  0.1211185E+01 -0.1904086E+01 -0.5968698E-07 -0.3153353E-05  0.3681388E+01 -0.5784884E+01
  0.1840000E+01  0.1211185E+01 -0.1569006E+01 -0.5968698E-07 -0.3425686E-05  0.3681388E+01 -0.4766559E+01
  0.1850000E+01  0.1211185E+01 -0.1165454E+01 -0.5968698E-07 -0.3648001E-05  0.3681388E+01 -0.3540202E+01
  0.1860000E+01  0.1211185E+01 -0.7107062E+00 -0.5968698E-07 -0.3811271E-05  0.3681388E+01 -0.2158303E+01
  0.1870000E+01  0.1211185E+01 -0.2241708E+00 -0.5968698E-07 -0.3908004E-05  0.3681388E+01 -0.6798497E+00
  0.1880000E+01  0.1211185E+01  0.2733637E+00 -0.5968698E-07 -0.3932480E-05  0.3681388E+01  0.8319981E+00
  0.1890000E+01  0.1211185E+01  0.7606703E+00 -0.5968698E-07 -0.3880879E-05  0.3681388E+01  0.2312721E+01
  0.1900000E+01  0.1211185E+01  0.1216938E+01 -0.5968698E-07 -0.3751420E-05  0.3681388E+01  0.3699085E+01
  0.1910000E+01  0.1211185E+01  0.1622666E+01 -0.5968698E-07 -0.3544379E-05  0.3681388E+01  0.4931848E+01
  0.1920000E+01  0.1211185E+01  0.1960407E+01 -0.5968698E-07 -0.3262106E-05  0.3681388E+01  0.5957983E+01
  0.1930000E+01  0.1211185E+01  0.2215566E+01 -0.5968698E-07 -0.2908958E-05  0.3681388E+01  0.6733132E+01
  0.1940000E+01  0.1211185E+01  0.2376960E+01 -0.5968698E-07 -0.2491192E-05  0.3681388E+01  0.7223353E+01
  0.1950000E+01  0.1211185E+01  0.2437274E+01 -0.5968698E-07 -0.2016779E-05  0.3681388E+01  0.7406400E+01
  0.1960000E+01  0.1211185E+01  0.2393423E+01 -0.5968698E-07 -0.1495217E-05  0.3681388E+01  0.7272904E+01
  0.1970000E+01  0.1211185E+01  0.2246583E+01 -0.5968698E-07 -0.9372113E-06  0.3681388E+01  0.6826447E+01
  0.1980000E+01  0.1211185E+01  0.2002237E+01 -0.5968698E-07 -0.3544553E-06  0.3681388E+01  0.6083706E+01
  0.1990000E+01  0.1211185E+01  0.1669941E+01 -0.5968698E-07  0.2407315E-06  0.3681388E+01  0.5073713E+01
  0.2000000E+01  0.1211185E+01  0.1262847E+01 -0.5968698E-07  0.8357356E-06  0.3681388E+01  0.3836452E+01
  0.2010000E+01  0.1211185E+01  0.7973222E+00 -0.5968698E-07  0.1418010E-05  0.3681388E+01  0.2421662E+01
  0.2020000E+01  0.1211185E+01  0.2921917E+00 -0.5968698E-07  0.1975415E-05  0.3681388E+01  0.8865543E+00
  0.2030000E+01  0.1211185E+01 -0.2320324E+00 -0.5968698E-07  0.2496553E-05  0.3681388E+01 -0.7065496E+00
  0.2040000E+01  0.1211185E+01 -0.7539387E+00 -0.5968698E-07  0.2971117E-05  0.3681388E+01 -0.2292557E+01
  0.2050000E+01  0.1211185E+01 -0.1252085E+01 -0.5968698E-07  0.3390147E-05  0.3681388E+01 -0.3806323E+01
  0.2060000E+01  0.1211185E+01 -0.1705905E+01 -0.5968698E-07  0.3746310E-05  0.3681388E+01 -0.5185349E+01
  0.2070000E+01  0.1211185E+01 -0.2096477E+01 -0.5968698E-07  0.4034106E-05  0.3681388E+01 -0.6372149E+01
  0.2080000E+01  0.1211185E+01 -0.2407372E+01 -0.5968698E-07  0.4250031E-05  0.3681388E+01 -0.7316771E+01
  0.2090000E+01  0.1211185E+01 -0.2625261E+01 -0.5968698E-07  0.4392676E-05  0.3681388E+01 -0.7978740E+01
  0.2100000E+01  0.1211185E+01 -0.2740444E+01 -0.5968698E-07  0.4462776E-05  0.3681388E+01 -0.8328569E+01
  0.2110000E+01  0.1211185E+01 -0.2747340E+01 -0.5968698E-07  0.4463200E-05  0.3681388E+01 -0.8349308E+01
  0.2120000E+01  0.1211185E+01 -0.2644636E+01 -0.5968698E-07  0.4398879E-05  0.3681388E+01 -0.8036961E+01
  0.2130000E+01  0.1211185E+01 -0.2435382E+01 -0.5968698E-07  0.4276625E-05  0.3681388E+01 -0.7400831E+01
  0.2140000E+01  0.1211185E+01 -0.2126912E+01 -0.5968698E-07  0.4104998E-05  0.3681388E+01 -0.6463193E+01
  0.2150000E+01  0.1211185E+01 -0.1730511E+01 -0.5968698E-07  0.3894033E-05  0.3681388E+01 -0.5258358E+01
  0.2160000E+01  0.1211185E+01 -0.1261049E+01 -0.5968698E-07  0.3654937E-05  0.3681388E+01 -0.3831501E+01
  0.2170000E+01  0.1211185E+01 -0.7363649E+00 -0.5968698E-07  0.3399781E-05  0.3681388E+01 -0.2236861E+01
  0.2180000E+01  0.1211185E+01 -0.1765104E+00 -0.5968698E-07  0.3141101E-05  0.3681388E+01 -0.5353505E+00
  0.2190000E+01  0.1211185E+01  0.3968588E+00 -0.5968698E-07  0.2891591E-05  0.3681388E+01  0.1207181E+01
  0.2200000E+01  0.1211185E+01  0.9615147E+00 -0.5968698E-07  0.2663654E-05  0.3681388E+01  0.2923218E+01
  0.2210000E+01  0.1211185E+01  0.1495403E+01 -0.5968698E-07  0.2469048E-05  0.3681388E+01  0.4545711E+01
  0.2220000E+01  0.1211185E+01  0.1977609E+01 -0.5968698E-07  0.2318512E-05  0.3681388E+01  0.6011117E+01
  0.2230000E+01  0.1211185E+01  0.2389062E+01 -0.5968698E-07  0.2221408E-05  0.3681388E+01  0.7261468E+01
  0.2240000E+01  0.1211185E+01  0.2713333E+01 -0.5968698E-07  0.2185443E-05  0.3681388E+01  0.8246855E+01
  0.2250000E+01  0.1211185E+01  0.2937371E+01 -0.5968698E-07  0.2216372E-05  0.3681388E+01  0.8927587E+01
  0.2260000E+01  0.1211185E+01  0.3051877E+01 -0.5968698E-07  0.2317808E-05  0.3681388E+01  0.9275447E+01
  0.2270000E+01  0.1211185E+01  0.3051735E+01 -0.5968698E-07  0.2491051E-05  0.3681388E+01  0.9274873E+01
  0.2280000E+01  0.1211185E+01  0.2936255E+01 -0.5968698E-07  0.2735022E-05  0.3681388E+01  0.8923763E+01
  0.2290000E+01  0.1211185E+01  0.2709126E+01 -0.5968698E-07  0.3046225E-05  0.3681388E+01  0.8233352E+01
  0.2300000E+01  0.1211185E+01  0.2378362E+01 -0.5968698E-07  0.3418801E-05  0.3681388E+01  0.7227986E+01
  0.2310000E+01  0.1211185E+01  0.1956008E+01 -0.5968698E-07  0.3844649E-05  0.3681388E+01  0.5944273E+01
  0.2320000E+01  0.1211185E+01  0.1457568E+01 -0.5968698E-07  0.4313641E-05  0.3681388E+01  0.4429340E+01
  0.2330000E+01  0.1211185E+01  0.9014955E+00 -0.5968698E-07  0.4813826E-05  0.3681388E+01  0.2739268E+01
  0.2340000E+01  0.1211185E+01  0.3085789E+00 -0.5968698E-07  0.5331758E-05  0.3681388E+01  0.9372473E+00
  0.2350000E+01  0.1211185E+01 -0.2990160E+00 -0.5968698E-07  0.5852856E-05  0.3681388E+01 -0.9093781E+00
  0.2360000E+01  0.1211185E+01 -0.8985086E+00 -0.5968698E-07  0.6361787E-05  0.3681388E+01 -0.2731346E+01
  0.2370000E+01  0.1211185E+01 -0.1467378E+01 -0.5968698E-07  0.6842907E-05  0.3681388E+01 -0.4460240E+01
  0.2380000E+01  0.1211185E+01 -0.1984197E+01 -0.5968698E-07  0.7280683E-05  0.3681388E+01 -0.6030924E+01
  0.2390000E+01  0.1211185E+01 -0.2429518E+01 -0.5968698E-07  0.7660124E-05  0.3681388E+01 -0.7384311E+01
  0.2400000E+01  0.1211185E+01 -0.2786530E+01 -0.5968698E-07  0.7967238E-05  0.3681388E+01 -0.8469295E+01
  0.2410000E+01  0.1211185E+01 -0.3041717E+01 -0.5968698E-07  0.8189417E-05  0.3681388E+01 -0.9244807E+01
  0.2420000E+01  0.1211185E+01 -0.3185446E+01 -0.5968698E-07  0.8315860E-05  0.3681388E+01 -0.9681574E+01
  0.2430000E+01  0.1211185E+01 -0.3212208E+01 -0.5968698E-07  0.8337841E-05  0.3681388E+01 -0.9762857E+01
  0.2440000E+01  0.1211185E+01 -0.3120862E+01 -0.5968698E-07  0.8249038E-05  0.3681388E+01 -0.9485178E+01
  0.2450000E+01  0.1211185E+01 -0.2914769E+01 -0.5968698E-07  0.8045720E-05  0.3681388E+01 -0.8858768E+01
  0.2460000E+01  0.1211185E+01 -0.2601531E+01 -0.5968698E-07  0.7726924E-05  0.3681388E+01 -0.7906723E+01
  0.2470000E+01  0.1211185E+01 -0.2192655E+01 -0.5968698E-07  0.7294471E-05  0.3681388E+01 -0.6664025E+01
  0.2480000E+01  0.1211185E+01 -0.1703367E+01 -0.5968698E-07  0.6753001E-05  0.3681388E+01 -0.5176931E+01
  0.2490000E+01  0.1211185E+01 -0.1151764E+01 -0.5968698E-07  0.6109861E-05  0.3681388E+01 -0.3500456E+01
  0.2500000E+01  0.1211185E+01 -0.5582474E+00 -0.5968698E-07  0.5374951E-05  0.3681388E+01 -0.1696600E+01
  0.2510000E+01  0.1211185E+01  0.5528560E-01 -0.5968698E-07  0.4560496E-05  0.3681388E+01  0.1680849E+00
  0.2520000E+01  0.1211185E+01  0.6662177E+00 -0.5968698E-07  0.3680694E-05  0.3681388E+01  0.2024866E+01
  0.2530000E+01  0.1211185E+01  0.1252111E+01 -0.5968698E-07  0.2751416E-05  0.3681388E+01  0.3805557E+01
  0.2540000E+01  0.1211185E+01  0.1791515E+01 -0.5968698E-07  0.1789764E-05  0.3681388E+01  0.5444944E+01
  0.2550000E+01  0.1211185E+01  0.2264775E+01 -0.5968698E-07  0.8136254E-06  0.3681388E+01  0.6883320E+01
  0.2560000E+01  0.1211185E+01  0.2654808E+01 -0.5968698E-07 -0.1588118E-06  0.3681388E+01  0.8068748E+01
  0.2570000E+01  0.1211185E+01  0.2947587E+01 -0.5968698E-07 -0.1109503E-05  0.3681388E+01  0.8958608E+01
  0.2580000E+01  0.1211185E+01  0.3132798E+01 -0.5968698E-07 -0.2021051E-05  0.3681388E+01  0.9521541E+01
  0.2590000E+01  0.1211185E+01  0.3204158E+01 -0.5968698E-07 -0.2877173E-05  0.3681388E+01  0.9738460E+01
  0.2600000E+01  0.1211185E+01  0.3159557E+01 -0.5968698E-07 -0.3663107E-05  0.3681388E+01  0.9602944E+01
  0.2610000E+01  0.1211185E+01  0.3001217E+01 -0.5968698E-07 -0.4366028E-05  0.3681388E+01  0.9121755E+01
  0.2620000E+01  0.1211185E+01  0.2735547E+01 -0.5968698E-07 -0.4975345E-05  0.3681388E+01  0.8314360E+01
  0.2630000E+01  0.1211185E+01  0.2372811E+01 -0.5968698E-07 -0.5483007E-05  0.3681388E+01  0.7211960E+01
  0.2640000E+01  0.1211185E+01  0.1926842E+01 -0.5968698E-07 -0.5883667E-05  0.3681388E+01  0.5856588E+01
  0.2650000E+01  0.1211185E+01  0.1414376E+01 -0.5968698E-07 -0.6174813E-05  0.3681388E+01  0.4299102E+01
  0.2660000E+01  0.1211185E+01  0.8545153E+00 -0.5968698E-07 -0.6356798E-05  0.3681388E+01  0.2597567E+01
  0.2670000E+01  0.1211185E+01  0.2679509E+00 -0.5968698E-07 -0.6432811E-05  0.3681388E+01  0.8148549E+00
  0.2680000E+01  0.1211185E+01 -0.3238215E+00 -0.5968698E-07 -0.6408723E-05  0.3681388E+01 -0.9836926E+00
  0.2690000E+01  0.1211185E+01 -0.8993035E+00 -0.5968698E-07 -0.6292884E-05  0.3681388E+01 -0.2732756E+01
  0.2700000E+01  0.1211185E+01 -0.1437714E+01 -0.5968698E-07 -0.6095894E-05  0.3681388E+01 -0.4369161E+01
  0.2710000E+01  0.1211185E+01 -0.1919905E+01 -0.5968698E-07 -0.5830157E-05  0.3681388E+01 -0.5834720E+01
  0.2720000E+01  0.1211185E+01 -0.2328921E+01 -0.5968698E-07 -0.5509608E-05  0.3681388E+01 -0.7077897E+01
  0.2730000E+01  0.1211185E+01 -0.2650661E+01 -0.5968698E-07 -0.5149201E-05  0.3681388E+01 -0.8055850E+01
  0.2740000E+01  0.1211185E+01 -0.2874365E+01 -0.5968698E-07 -0.4764481E-05  0.3681388E+01 -0.8735851E+01
  0.2750000E+01  0.1211185E+01 -0.2992993E+01 -0.5968698E-07 -0.4371075E-05  0.3681388E+01 -0.9096511E+01
  0.2760000E+01  0.1211185E+01 -0.3003387E+01 -0.5968698E-07 -0.3984257E-05  0.3681388E+01 -0.9128236E+01
  0.2770000E+01  0.1211185E+01 -0.2906428E+01 -0.5968698E-07 -0.3618470E-05  0.3681388E+01 -0.8833687E+01
  0.2780000E+01  0.1211185E+01 -0.2706900E+01 -0.5968698E-07 -0.3286880E-05  0.3681388E+01 -0.8227405E+01