VARIABLES="w (rad/s)"
"abs(F   1   1)" "angle(F   1   1)"
"abs(F   1   2)" "angle(F   1   2)"
"abs(F   1   3)" "angle(F   1   3)"
Zone t="Diffraction force - beta =   0.000 deg",I=    32,F=POINT
  0.1000000E+00  0.3458579E+04 -0.1570797E+01  0.4179930E+05 -0.2165108E-05  0.1825937E+04  0.1570799E+01
  0.2000000E+00  0.1377685E+05 -0.1570791E+01  0.3107203E+05 -0.2500962E-04  0.7300115E+04  0.1570804E+01
  0.3000000E+00  0.3060107E+05 -0.1570733E+01  0.1356259E+05 -0.5687525E-04  0.1630715E+05  0.1570859E+01
  0.4000000E+00  0.5346174E+05 -0.1570454E+01  0.1018724E+05 -0.3141486E+01  0.2871165E+05  0.1571138E+01
  0.5000000E+00  0.8177631E+05 -0.1569555E+01  0.3954411E+05 -0.3140513E+01  0.4435570E+05  0.1572037E+01
  0.6000001E+00  0.1149250E+06 -0.1567290E+01  0.7385324E+05 -0.3137512E+01  0.6307938E+05  0.1574302E+01
  0.7000000E+00  0.1523175E+06 -0.1562480E+01  0.1124638E+06 -0.3130524E+01  0.8474240E+05  0.1579112E+01
  0.8000001E+00  0.1934507E+06 -0.1553418E+01  0.1546548E+06 -0.3116828E+01  0.1092763E+06  0.1588175E+01
  0.9000000E+00  0.2378278E+06 -0.1537785E+01  0.1994392E+06 -0.3093085E+01  0.1365516E+06  0.1603807E+01
  0.1000000E+01  0.2850099E+06 -0.1512532E+01  0.2451781E+06 -0.3055759E+01  0.1664689E+06  0.1629064E+01
  0.1100000E+01  0.3342812E+06 -0.1473702E+01  0.2890326E+06 -0.3001993E+01  0.1985990E+06  0.1667892E+01
  0.1200000E+01  0.3844833E+06 -0.1416114E+01  0.3266191E+06 -0.2931194E+01  0.2322588E+06  0.1725490E+01
  0.1300000E+01  0.4331348E+06 -0.1333493E+01  0.3525931E+06 -0.2846417E+01  0.2654465E+06  0.1808124E+01
  0.1400000E+01  0.4749850E+06 -0.1219134E+01  0.3626157E+06 -0.2755019E+01  0.2943503E+06  0.1922507E+01
  0.1500000E+01  0.5008718E+06 -0.1068343E+01  0.3555363E+06 -0.2667017E+01  0.3121760E+06  0.2073361E+01
  0.1600000E+01  0.4989100E+06 -0.8840017E+00  0.3340327E+06 -0.2591638E+01  0.3100030E+06  0.2257776E+01
  0.1700000E+01  0.4616620E+06 -0.6813036E+00  0.3032348E+06 -0.2533910E+01  0.2821111E+06  0.2460586E+01
  0.1800000E+01  0.3946571E+06 -0.4859604E+00  0.2680649E+06 -0.2494916E+01  0.2324990E+06  0.2656137E+01
  0.1900000E+01  0.3150364E+06 -0.3187892E+00  0.2321309E+06 -0.2473042E+01  0.1727629E+06  0.2823401E+01
  0.2000000E+01  0.2387215E+06 -0.1877116E+00  0.1975618E+06 -0.2465933E+01  0.1142725E+06  0.2954961E+01
  0.2100000E+01  0.1737726E+06 -0.9128061E-01  0.1655594E+06 -0.2470805E+01  0.6321042E+05  0.3051458E+01
  0.2200000E+01  0.1219137E+06 -0.2390109E-01  0.1366242E+06 -0.2484916E+01  0.2127988E+05  0.3117349E+01
  0.2300000E+01  0.8216438E+05  0.2089447E-01  0.1109282E+06 -0.2506932E+01  0.1168341E+05  0.2397259E-01
  0.2400000E+01  0.5261841E+05  0.4735735E-01  0.8851192E+05 -0.2535575E+01  0.3651601E+05  0.5021933E-01
  0.2500000E+01  0.3115672E+05  0.5791062E-01  0.6924030E+05 -0.2569622E+01  0.5453538E+05  0.6400274E-01
  0.2600000E+01  0.1598881E+05  0.5941731E-01  0.5291494E+05 -0.2608750E+01  0.6699345E+05  0.6368897E-01
  0.2700000E+01  0.5717466E+04  0.5802371E-01  0.3937291E+05 -0.2652770E+01  0.7452802E+05  0.5311611E-01
  0.2800000E+01  0.9323521E+03  0.2988466E+01  0.2831316E+05 -0.2700848E+01  0.7821553E+05  0.3259891E-01
  0.2900000E+01  0.4913018E+04  0.3091806E+01  0.1944290E+05 -0.2752072E+01  0.7893413E+05  0.5300726E-02
  0.3000000E+01  0.7028559E+04  0.3058629E+01  0.1248362E+05 -0.2807234E+01  0.7745665E+05 -0.2961459E-01
  0.3100000E+01  0.7827845E+04  0.3012004E+01  0.7162611E+04 -0.2863774E+01  0.7416584E+05 -0.7246266E-01
  0.3200000E+01  0.7825779E+04  0.2950850E+01  0.3170942E+04 -0.2914159E+01  0.6975513E+05 -0.1226327E+00
