VARIABLES="w (rad/s)"
"A   1   1" "B   1   1"
"A   1   2" "B   1   2"
"A   1   3" "B   1   3"
Zone t="Motion of body    1 in DoF   1",I=    32,F=POINT
  0.1000000E+00  0.1325086E+06  0.2997974E-02 -0.5538687E-02  0.5065597E-06 -0.7160541E+05 -0.1616025E-02
  0.2000000E+00  0.1345700E+06  0.3988507E+00 -0.6260797E-02  0.2729763E-05 -0.7279183E+05 -0.2114017E+00
  0.3000000E+00  0.1359191E+06  0.6644996E+01 -0.2437830E-02  0.1583773E-04 -0.7359608E+05 -0.3541036E+01
  0.4000000E+00  0.1379797E+06  0.4808400E+02  0.4182085E-02  0.2323918E-04 -0.7480782E+05 -0.2582431E+02
  0.5000000E+00  0.1409589E+06  0.2197307E+03  0.5906820E-03 -0.1460789E-03 -0.7657312E+05 -0.1191828E+03
  0.6000001E+00  0.1450519E+06  0.7498904E+03 -0.1068959E-01  0.2600374E-03 -0.7900162E+05 -0.4115975E+03
  0.7000000E+00  0.1504393E+06  0.2091560E+04 -0.1113415E-02  0.1985826E-02 -0.8220695E+05 -0.1163656E+04
  0.8000001E+00  0.1572704E+06  0.5034900E+04  0.2603024E-01  0.9424249E-02 -0.8634901E+05 -0.2844192E+04
  0.9000000E+00  0.1653636E+06  0.1083309E+05  0.1850393E-01  0.5041387E-02 -0.9130677E+05 -0.6220092E+04
  0.1000000E+01  0.1743412E+06  0.2133078E+05  0.1573789E-01  0.1205765E-01 -0.9692756E+05 -0.1245980E+05
  0.1100000E+01  0.1830509E+06  0.3903129E+05  0.1584681E-01  0.2074187E-01 -0.1024498E+06 -0.2318932E+05
  0.1200000E+01  0.1895734E+06  0.6702948E+05  0.1202623E-01  0.1225448E-01 -0.1067441E+06 -0.4049636E+05
  0.1300000E+01  0.1902969E+06  0.1081154E+06 -0.1802087E-01 -0.5525351E-03 -0.1073008E+06 -0.6626938E+05
  0.1400000E+01  0.1797977E+06  0.1623150E+06 -0.1675657E-02 -0.4004687E-01 -0.1005374E+06 -0.1006106E+06
  0.1500000E+01  0.1523295E+06  0.2218907E+06  0.9519179E-02 -0.2360177E-01 -0.8254633E+05 -0.1383404E+06
  0.1600000E+01  0.1072931E+06  0.2670172E+06  0.2247021E-01 -0.2573907E-02 -0.5292700E+05 -0.1659795E+06
  0.1700000E+01  0.5571198E+05  0.2739741E+06 -0.2978128E-02 -0.2917944E-01 -0.1927309E+05 -0.1674951E+06
  0.1800000E+01  0.1583151E+05  0.2373617E+06  0.1243419E-02 -0.1545884E-01  0.5909715E+04 -0.1398993E+06
  0.1900000E+01 -0.2705735E+04  0.1775260E+06  0.1988725E-02 -0.2223385E-02  0.1624228E+05 -0.9738289E+05
  0.2000000E+01 -0.3524888E+04  0.1184159E+06  0.4072964E-02  0.1913904E-01  0.1447199E+05 -0.5659564E+05
  0.2100000E+01  0.5157417E+04  0.7204675E+05  0.2688454E-03 -0.6820675E-02  0.6425436E+04 -0.2593526E+05
  0.2200000E+01  0.1702700E+05  0.4014105E+05 -0.1322248E-02 -0.1110733E-02 -0.3366548E+04 -0.6403782E+04
  0.2300000E+01  0.2864640E+05  0.2015671E+05 -0.7605242E-02  0.9743471E-02 -0.1245252E+05  0.4035359E+04
  0.2400000E+01  0.3862827E+05  0.8721931E+04  0.3597339E-02 -0.1441462E-02 -0.1985262E+05  0.8000883E+04
  0.2500000E+01  0.4666962E+05  0.2880352E+04  0.4769898E-02 -0.1686101E-01 -0.2540739E+05  0.7940179E+04
  0.2600000E+01  0.5290559E+05  0.3550577E+03  0.4935448E-02 -0.1889253E-03 -0.2932505E+05  0.5867969E+04
  0.2700000E+01  0.5764081E+05 -0.3322324E+03  0.9004804E-02 -0.1140255E-01 -0.3190880E+05  0.2982303E+04
  0.2800000E+01  0.6122457E+05 -0.1985435E+03  0.2094073E-01 -0.1024903E-01 -0.3352135E+05  0.1857478E+03
  0.2900000E+01  0.6396914E+05  0.2046114E+03  0.1886524E-01 -0.6009656E-02 -0.3449378E+05 -0.2070102E+04
  0.3000000E+01  0.6612025E+05  0.5518702E+03  0.1738087E-01 -0.3725889E-02 -0.3508903E+05 -0.3585826E+04
  0.3100000E+01  0.6785859E+05  0.7121882E+03  0.1573740E-01  0.9936715E-03 -0.3547259E+05 -0.4374040E+04
  0.3200000E+01  0.6932440E+05  0.6842336E+03  0.1581326E-01 -0.6607816E-02 -0.3578310E+05 -0.4516377E+04
Zone t="Motion of body    1 in DoF   2",I=    32,F=POINT
  0.1000000E+00  0.1851022E-02 -0.1014909E-05  0.1496134E+06  0.8832805E+00 -0.6630421E-02  0.4918315E-05
  0.2000000E+00  0.2616346E-02 -0.6567128E-04  0.1495597E+06  0.3862104E+01 -0.7288456E-02  0.1476519E-03
  0.3000000E+00  0.6132125E-02 -0.2106465E-04  0.1511208E+06  0.2346110E+01 -0.5257924E-02 -0.9480491E-04
  0.4000000E+00  0.2499491E-01  0.6960342E-03  0.1535618E+06  0.3854780E+01 -0.1729012E-01 -0.2827495E-04
  0.5000000E+00  0.1219368E-01 -0.5852357E-03  0.1572158E+06  0.1048348E+03 -0.9681702E-02  0.5488992E-03
  0.6000001E+00  0.2367496E-02 -0.8782595E-03  0.1624749E+06  0.6231522E+03 -0.7125536E-02  0.9061694E-03
  0.7000000E+00 -0.4131454E-02 -0.1212656E-03  0.1696272E+06  0.2281874E+04 -0.2179827E-03 -0.2853870E-03
  0.8000001E+00  0.3828346E-01  0.2898335E-02  0.1786765E+06  0.6422429E+04 -0.3341436E-01  0.6232262E-03
  0.9000000E+00  0.2061659E-01  0.5315661E-02  0.1890747E+06  0.1518087E+05 -0.1184464E-01 -0.7295609E-03
  0.1000000E+01  0.1366615E-01 -0.1704693E-03  0.1992746E+06  0.3143607E+05 -0.1560783E-01 -0.8736610E-02
  0.1100000E+01  0.2862453E-01 -0.1413703E-02  0.2062818E+06  0.5811457E+05 -0.1877525E-01 -0.3319740E-02
  0.1200000E+01  0.2905170E-01  0.6861448E-02  0.2058040E+06  0.9631627E+05 -0.1548926E-01 -0.2881050E-02
  0.1300000E+01 -0.2719072E-01 -0.1280010E-01  0.1937965E+06  0.1427146E+06  0.1291715E-01 -0.1785278E-02
  0.1400000E+01 -0.1534871E-01 -0.1548803E-01  0.1693940E+06  0.1886317E+06  0.9757451E-02  0.3529549E-02
  0.1500000E+01 -0.2678744E-01 -0.1308995E-01  0.1364265E+06  0.2231657E+06  0.1262665E-01 -0.5801678E-02
  0.1600000E+01  0.1908183E-01  0.3409123E-01  0.1018102E+06  0.2392322E+06 -0.9751320E-02 -0.3435481E-01
  0.1700000E+01 -0.6345861E-02  0.1402968E-01  0.7160470E+05  0.2366246E+06  0.3792258E-03 -0.9643793E-02
  0.1800000E+01 -0.1043903E-01  0.3108644E-01  0.4886311E+05  0.2196474E+06  0.1648797E-02 -0.1696539E-01
  0.1900000E+01 -0.1041513E-02  0.5025864E-02  0.3394852E+05  0.1937786E+06  0.4633853E-02 -0.6946087E-02
  0.2000000E+01  0.9756088E-03  0.2547491E-01  0.2585717E+05  0.1637681E+06  0.4875183E-02 -0.1380396E-01
  0.2100000E+01 -0.4705702E-02 -0.9512901E-02  0.2311123E+05  0.1331598E+06  0.1821972E-02  0.1586914E-02
  0.2200000E+01  0.4495274E-03 -0.5859613E-02  0.2419038E+05  0.1042146E+06  0.2172644E-02  0.2646446E-03
  0.2300000E+01  0.1214484E-02 -0.3935099E-02  0.2784980E+05  0.7845752E+05 -0.1273777E-02 -0.3860235E-02
  0.2400000E+01  0.5267064E-02  0.1703557E-01  0.3304904E+05  0.5670655E+05  0.2470016E-02 -0.1065993E-01
  0.2500000E+01  0.2723694E-02 -0.5397379E-02  0.3897647E+05  0.3913507E+05  0.4531860E-03  0.1588583E-02
  0.2600000E+01 -0.2467449E-02 -0.9874061E-02  0.4500319E+05  0.2565001E+05 -0.1788506E-02  0.7142842E-02
  0.2700000E+01  0.5155846E-02 -0.2796368E-01  0.5070586E+05  0.1587273E+05 -0.4434939E-02  0.6568253E-02
  0.2800000E+01  0.1676457E-01 -0.2608909E-01  0.5584949E+05  0.9131261E+04 -0.9452275E-02 -0.3433555E-02
  0.2900000E+01  0.2182599E-01 -0.1783521E-01  0.6033320E+05  0.4759567E+04 -0.8786958E-02 -0.8815929E-02
  0.3000000E+01  0.1691882E-01 -0.1537392E-01  0.6412544E+05  0.2155067E+04 -0.7583618E-02 -0.9649016E-02
  0.3100000E+01  0.2054276E-01 -0.2283902E-01  0.6728405E+05  0.7129139E+03 -0.7658928E-02 -0.1550733E-01
  0.3200000E+01  0.1957953E-01 -0.1180260E-01  0.6991418E+05 -0.6120440E+02 -0.5533695E-02 -0.2226002E-01
Zone t="Motion of body    1 in DoF   3",I=    32,F=POINT
  0.1000000E+00 -0.7125006E+05 -0.1612919E-02 -0.6861389E-02 -0.8842338E-06  0.7510116E+05  0.9527608E-03
  0.2000000E+00 -0.7245889E+05 -0.2107338E+00 -0.2932549E-02 -0.4273432E-05  0.7585033E+05  0.1117475E+00
  0.3000000E+00 -0.7325877E+05 -0.3529517E+01 -0.1126329E-02  0.1609435E-04  0.7635840E+05  0.1880729E+01
  0.4000000E+00 -0.7447234E+05 -0.2573925E+02 -0.1402140E-01 -0.9283860E-05  0.7710712E+05  0.1382381E+02
  0.5000000E+00 -0.7622368E+05 -0.1187795E+03 -0.3289223E-02 -0.2017277E-03  0.7818291E+05  0.6442564E+02
  0.6000001E+00 -0.7863438E+05 -0.4101785E+03 -0.1632174E-02 -0.5381450E-03  0.7967101E+05  0.2251346E+03
  0.7000000E+00 -0.8183611E+05 -0.1159693E+04 -0.4051753E-02 -0.7345192E-03  0.8166876E+05  0.6451983E+03
  0.8000001E+00 -0.8594685E+05 -0.2833747E+04 -0.4780292E-01 -0.8359328E-02  0.8421535E+05  0.1600761E+04
  0.9000000E+00 -0.9087955E+05 -0.6197393E+04  0.5286270E-02  0.8974839E-02  0.8734007E+05  0.3558332E+04
  0.1000000E+01 -0.9645879E+05 -0.1240997E+05 -0.2287316E-01  0.2566691E-02  0.9093932E+05  0.7249007E+04
  0.1100000E+01 -0.1019642E+06 -0.2309813E+05  0.1162095E-01 -0.1315159E-01  0.9456909E+05  0.1372255E+05
  0.1200000E+01 -0.1061868E+06 -0.4031800E+05  0.2579689E-02 -0.2442300E-01  0.9746914E+05  0.2435710E+05
  0.1300000E+01 -0.1067156E+06 -0.6595683E+05  0.2004403E-01  0.2763611E-01  0.9807503E+05  0.4042775E+05
  0.1400000E+01 -0.9993834E+05 -0.1000963E+06 -0.5647115E-03  0.3411317E-01  0.9395045E+05  0.6203997E+05
  0.1500000E+01 -0.8199827E+05 -0.1375591E+06 -0.2593168E-01  0.1728006E-01  0.8254899E+05  0.8575806E+05
  0.1600000E+01 -0.5251758E+05 -0.1649431E+06 -0.2921224E-01 -0.3376547E-01  0.6360680E+05  0.1025192E+06
  0.1700000E+01 -0.1906817E+05 -0.1663405E+06  0.3900808E-02 -0.2103164E-01  0.4237668E+05  0.1016667E+06
  0.1800000E+01  0.5913513E+04 -0.1386930E+06 -0.1112620E-03 -0.4252793E-01  0.2730500E+05  0.8175755E+05
  0.1900000E+01  0.1607662E+05 -0.9622691E+05  0.1279028E-01 -0.7814007E-02  0.2255858E+05  0.5277807E+05
  0.2000000E+01  0.1419861E+05 -0.5562458E+05  0.3422260E-02 -0.3133921E-02  0.2605122E+05  0.2656520E+05
  0.2100000E+01  0.6099154E+04 -0.2518261E+05  0.1442387E-01 -0.9645250E-02  0.3348880E+05  0.9023168E+04
  0.2200000E+01 -0.3716691E+04 -0.5863241E+04  0.1007232E-01  0.6140431E-02  0.4162118E+05  0.6951863E+03
  0.2300000E+01 -0.1279677E+05  0.4369074E+04  0.1570515E-01  0.2365782E-02  0.4856898E+05 -0.1276928E+03
  0.2400000E+01 -0.2016444E+05  0.8119136E+04  0.3551642E-02 -0.3882798E-02  0.5350620E+05  0.4380146E+04
  0.2500000E+01 -0.2568768E+05  0.7866093E+04  0.1438694E-01 -0.1988109E-01  0.5644105E+05  0.1184006E+05
  0.2600000E+01 -0.2956629E+05  0.5629898E+04  0.5593117E-02 -0.3650324E-02  0.5765972E+05  0.2040549E+05
  0.2700000E+01 -0.3207674E+05  0.2594007E+04  0.9341416E-02 -0.1217647E-01  0.5735721E+05  0.2859281E+05
  0.2800000E+01 -0.3362494E+05 -0.2579293E+03  0.1569952E-01 -0.1468180E-01  0.5612157E+05  0.3513816E+05
  0.2900000E+01 -0.3453754E+05 -0.2582435E+04  0.1676000E-01 -0.6380206E-02  0.5433467E+05  0.3994992E+05
  0.3000000E+01 -0.3508139E+05 -0.4140494E+04  0.7465363E-02 -0.1068827E-02  0.5236727E+05  0.4278195E+05
  0.3100000E+01 -0.3541155E+05 -0.4879458E+04  0.7744451E-02  0.4662956E-02  0.5042654E+05  0.4337156E+05
  0.3200000E+01 -0.3568902E+05 -0.4932690E+04  0.8371472E-02 -0.4885829E-02  0.4878709E+05  0.4208348E+05
