VARIABLES="w (rad/s)"
"abs(F   1   1)" "angle(F   1   1)"
"abs(F   1   2)" "angle(F   1   2)"
"abs(F   1   3)" "angle(F   1   3)"
Zone t="Diffraction force - beta =   0.000 deg",I=    32,F=POINT
  0.1000000E+00  0.3451399E+04 -0.1570796E+01  0.9880077E+05 -0.5005578E-05  0.2727753E+03  0.1570777E+01
  0.2000000E+00  0.1377301E+05 -0.1570790E+01  0.8869314E+05 -0.7166291E-04  0.1119763E+04  0.1570801E+01
  0.3000000E+00  0.3068953E+05 -0.1570733E+01  0.7219857E+05 -0.2965828E-03  0.2633288E+04  0.1570859E+01
  0.4000000E+00  0.5385835E+05 -0.1570449E+01  0.4983079E+05 -0.6640587E-03  0.4963034E+04  0.1571143E+01
  0.5000000E+00  0.8287868E+05 -0.1569523E+01  0.2223166E+05 -0.8370233E-03  0.8317516E+04  0.1572070E+01
  0.6000001E+00  0.1173723E+06 -0.1567156E+01  0.9941340E+04  0.3141567E+01  0.1297363E+05  0.1574436E+01
  0.7000000E+00  0.1570717E+06 -0.1562029E+01  0.4605291E+05 -0.3138222E+01  0.1927455E+05  0.1579564E+01
  0.8000001E+00  0.2019036E+06 -0.1552135E+01  0.8540898E+05 -0.3130161E+01  0.2768134E+05  0.1589461E+01
  0.9000000E+00  0.2519787E+06 -0.1534555E+01  0.1272752E+06 -0.3114679E+01  0.3867236E+05  0.1607046E+01
  0.1000000E+01  0.3076099E+06 -0.1505120E+01  0.1704802E+06 -0.3088767E+01  0.5299329E+05  0.1636496E+01
  0.1100000E+01  0.3690017E+06 -0.1457886E+01  0.2131912E+06 -0.3049726E+01  0.7126656E+05  0.1683760E+01
  0.1200000E+01  0.4356372E+06 -0.1384304E+01  0.2522666E+06 -0.2996604E+01  0.9430485E+05  0.1757357E+01
  0.1300000E+01  0.5038483E+06 -0.1273331E+01  0.2837793E+06 -0.2930658E+01  0.1218676E+06  0.1868333E+01
  0.1400000E+01  0.5627506E+06 -0.1113660E+01  0.3037288E+06 -0.2857238E+01  0.1513811E+06  0.2028091E+01
  0.1500000E+01  0.5903195E+06 -0.9029868E+00  0.3098281E+06 -0.2784247E+01  0.1759839E+06  0.2238807E+01
  0.1600000E+01  0.5637206E+06 -0.6631193E+00  0.3023173E+06 -0.2720970E+01  0.1856701E+06  0.2478840E+01
  0.1700000E+01  0.4862648E+06 -0.4361685E+00  0.2842256E+06 -0.2673948E+01  0.1757874E+06  0.2705875E+01
  0.1800000E+01  0.3873892E+06 -0.2583231E+00  0.2595635E+06 -0.2646535E+01  0.1527608E+06  0.2884001E+01
  0.1900000E+01  0.2941270E+06 -0.1359952E+00  0.2319511E+06 -0.2638233E+01  0.1254589E+06  0.3006721E+01
  0.2000000E+01  0.2168964E+06 -0.6083844E-01  0.2038698E+06 -0.2647402E+01  0.9879691E+05  0.3081849E+01
  0.2100000E+01  0.1564324E+06 -0.2207972E-01  0.1768264E+06 -0.2671722E+01  0.7494489E+05  0.3121387E+01
  0.2200000E+01  0.1100999E+06 -0.9828446E-02  0.1516191E+06 -0.2708541E+01  0.5411600E+05  0.3134914E+01
  0.2300000E+01  0.7497870E+05 -0.1792230E-01  0.1286403E+06 -0.2756029E+01  0.3602654E+05  0.3126206E+01
  0.2400000E+01  0.4871127E+05 -0.4174528E-01  0.1080099E+06 -0.2812808E+01  0.2069132E+05  0.3105350E+01
  0.2500000E+01  0.2926636E+05 -0.7853844E-01  0.8970595E+05 -0.2877232E+01  0.7862704E+04  0.3080195E+01
  0.2600000E+01  0.1506242E+05 -0.1246207E+00  0.7365315E+05 -0.2948240E+01  0.2836095E+04 -0.1437817E+00
  0.2700000E+01  0.4937205E+04 -0.1759244E+00  0.5972403E+05 -0.3025220E+01  0.1148211E+05 -0.1788731E+00
  0.2800000E+01  0.2056788E+04  0.2823827E+01  0.4773507E+05 -0.3107265E+01  0.1829821E+05 -0.2497384E+00
  0.2900000E+01  0.6651602E+04  0.2781064E+01  0.3745364E+05  0.3090500E+01  0.2342859E+05 -0.3245324E+00
  0.3000000E+01  0.9466627E+04  0.2702150E+01  0.2867005E+05  0.3003315E+01  0.2708379E+05 -0.4033609E+00
  0.3100000E+01  0.1095832E+05  0.2612919E+01  0.2105067E+05  0.2919458E+01  0.2945087E+05 -0.4911120E+00
  0.3200000E+01  0.1159327E+05  0.2517506E+01  0.1375460E+05  0.2862655E+01  0.3090633E+05 -0.5851278E+00
