VARIABLES="w (rad/s)"
"abs(F   1   1)" "angle(F   1   1)"
"abs(F   1   2)" "angle(F   1   2)"
"abs(F   1   3)" "angle(F   1   3)"
Zone t="Diffraction force - beta =   0.000 deg",I=    32,F=POINT
  0.1000000E+00  0.8608995E+03 -0.1570797E+01  0.4302676E+06 -0.2243634E-04  0.3876656E+04 -0.1570795E+01
  0.2000000E+00  0.3430788E+04 -0.1570794E+01  0.4253411E+06 -0.3547662E-03  0.1545226E+05 -0.1570796E+01
  0.3000000E+00  0.7666859E+04 -0.1570781E+01  0.4170005E+06 -0.1760760E-02  0.3455513E+05 -0.1570780E+01
  0.4000000E+00  0.1348496E+05 -0.1570711E+01  0.4052779E+06 -0.5408161E-02  0.6082968E+05 -0.1570711E+01
  0.5000000E+00  0.2079102E+05 -0.1570487E+01  0.3904410E+06 -0.1271873E-01  0.9389299E+05 -0.1570487E+01
  0.6000001E+00  0.2945319E+05 -0.1569927E+01  0.3729706E+06 -0.2518937E-01  0.1331944E+06 -0.1569927E+01
  0.7000000E+00  0.3929239E+05 -0.1568760E+01  0.3534720E+06 -0.4421590E-01  0.1779737E+06 -0.1568760E+01
  0.8000001E+00  0.5008897E+05 -0.1566645E+01  0.3326796E+06 -0.7096539E-01  0.2272604E+06 -0.1566645E+01
  0.9000000E+00  0.6162932E+05 -0.1563247E+01  0.3112925E+06 -0.1063375E+00  0.2801830E+06 -0.1563248E+01
  0.1000000E+01  0.7348798E+05 -0.1558326E+01  0.2898774E+06 -0.1508656E+00  0.3347754E+06 -0.1558327E+01
  0.1100000E+01  0.8530869E+05 -0.1551980E+01  0.2689434E+06 -0.2049493E+00  0.3895152E+06 -0.1551982E+01
  0.1200000E+01  0.9652044E+05 -0.1544730E+01  0.2488719E+06 -0.2686456E+00  0.4417420E+06 -0.1544731E+01
  0.1300000E+01  0.1065003E+06 -0.1537833E+01  0.2297592E+06 -0.3418465E+00  0.4886106E+06 -0.1537832E+01
  0.1400000E+01  0.1147191E+06 -0.1533342E+01  0.2118281E+06 -0.4245704E+00  0.5276696E+06 -0.1533340E+01
  0.1500000E+01  0.1207115E+06 -0.1533977E+01  0.1951535E+06 -0.5166468E+00  0.5566982E+06 -0.1533975E+01
  0.1600000E+01  0.1242225E+06 -0.1542775E+01  0.1797385E+06 -0.6178966E+00  0.5744314E+06 -0.1542773E+01
  0.1700000E+01  0.1252702E+06 -0.1562686E+01  0.1655525E+06 -0.7281713E+00  0.5808560E+06 -0.1562684E+01
  0.1800000E+01  0.1241218E+06 -0.1596109E+01  0.1525241E+06 -0.8472912E+00  0.5771144E+06 -0.1596110E+01
  0.1900000E+01  0.1212045E+06 -0.1644677E+01  0.1405963E+06 -0.9751825E+00  0.5651025E+06 -0.1644681E+01
  0.2000000E+01  0.1169887E+06 -0.1709200E+01  0.1296646E+06 -0.1111677E+01  0.5469372E+06 -0.1709212E+01
  0.2100000E+01  0.1119311E+06 -0.1789854E+01  0.1196709E+06 -0.1256805E+01  0.5247181E+06 -0.1789879E+01
  0.2200000E+01  0.1063977E+06 -0.1886282E+01  0.1105297E+06 -0.1410542E+01  0.5001183E+06 -0.1886336E+01
  0.2300000E+01  0.1006655E+06 -0.1997864E+01  0.1021490E+06 -0.1572930E+01  0.4744292E+06 -0.1997952E+01
  0.2400000E+01  0.9493523E+05 -0.2123865E+01  0.9444407E+05 -0.1744183E+01  0.4485959E+06 -0.2124009E+01
  0.2500000E+01  0.8934554E+05 -0.2263509E+01  0.8734538E+05 -0.1924896E+01  0.4232719E+06 -0.2263723E+01
  0.2600000E+01  0.8397804E+05 -0.2416135E+01  0.8069867E+05 -0.2116642E+01  0.3988647E+06 -0.2416445E+01
  0.2700000E+01  0.7885852E+05 -0.2580990E+01  0.7406532E+05 -0.2324730E+01  0.3755044E+06 -0.2581395E+01
  0.2800000E+01  0.7402320E+05 -0.2757743E+01  0.6290611E+05 -0.2618232E+01  0.3533804E+06 -0.2758239E+01
  0.2900000E+01  0.6949261E+05 -0.2945951E+01  0.7002708E+05 -0.2624315E+01  0.3326066E+06 -0.2946545E+01
  0.3000000E+01  0.6521315E+05  0.3137788E+01  0.6318868E+05 -0.2888972E+01  0.3129435E+06  0.3137121E+01
  0.3100000E+01  0.6116418E+05  0.2926885E+01  0.5854982E+05 -0.3125068E+01  0.2942892E+06  0.2926235E+01
  0.3200000E+01  0.5726125E+05  0.2703034E+01  0.5454105E+05  0.2920560E+01  0.2763527E+06  0.2702409E+01
