VARIABLES="w (rad/s)"
"A   1   1" "B   1   1"
"A   1   2" "B   1   2"
"A   1   3" "B   1   3"
Zone t="Motion of body    1 in DoF   1",I=    32,F=POINT
  0.1000000E+00  0.2590095E+05  0.1968556E-03 -0.4282892E-02 -0.4458637E-05  0.1131944E+06  0.8809463E-03
  0.2000000E+00  0.2603402E+05  0.2457388E-01 -0.5796999E-02 -0.3060412E-04  0.1137383E+06  0.1106652E+00
  0.3000000E+00  0.2621272E+05  0.4137335E+00  0.3054142E-02  0.7604940E-04  0.1145798E+06  0.1864806E+01
  0.4000000E+00  0.2637907E+05  0.3035596E+01 -0.3128499E-02 -0.1752342E-03  0.1153425E+06  0.1369336E+02
  0.5000000E+00  0.2666128E+05  0.1409254E+02 -0.4159093E-02 -0.5305766E-03  0.1166547E+06  0.6364235E+02
  0.6000001E+00  0.2705479E+05  0.4885428E+02 -0.1062423E-01 -0.1890657E-02  0.1184878E+06  0.2209300E+03
  0.7000000E+00  0.2753140E+05  0.1380435E+03 -0.1405733E-01 -0.4655258E-02  0.1207131E+06  0.6252520E+03
  0.8000001E+00  0.2809524E+05  0.3350271E+03 -0.6513133E-01 -0.2455244E-01  0.1233062E+06  0.1520049E+04
  0.9000000E+00  0.2883298E+05  0.7213854E+03  0.2288037E-01  0.9909769E-02  0.1267675E+06  0.3279480E+04
  0.1000000E+01  0.2956600E+05  0.1408083E+04  0.2411366E-02  0.1464305E-02  0.1301628E+06  0.6414394E+04
  0.1100000E+01  0.3034910E+05  0.2522512E+04  0.2207864E-02 -0.4310310E-03  0.1338610E+06  0.1151667E+05
  0.1200000E+01  0.3102749E+05  0.4193032E+04 -0.4490216E-04  0.1343697E-02  0.1370720E+06  0.1918928E+05
  0.1300000E+01  0.3142267E+05  0.6498573E+04  0.2593352E-02  0.7314056E-02  0.1389923E+06  0.2981484E+05
  0.1400000E+01  0.3148754E+05  0.9425162E+04  0.4852074E-02  0.9770572E-02  0.1394305E+06  0.4335445E+05
  0.1500000E+01  0.3113394E+05  0.1284029E+05 -0.9365241E-02 -0.1624890E-01  0.1379435E+06  0.5921991E+05
  0.1600000E+01  0.3033270E+05  0.1650888E+05 -0.6653294E-02 -0.2003567E-01  0.1343774E+06  0.7634512E+05
  0.1700000E+01  0.2913168E+05  0.2014227E+05 -0.2863828E-03 -0.3862113E-02  0.1289412E+06  0.9340345E+05
  0.1800000E+01  0.2764655E+05  0.2347808E+05 -0.1116726E-01 -0.3005311E-01  0.1221589E+06  0.1091737E+06
  0.1900000E+01  0.2600799E+05  0.2633722E+05 -0.5375775E-02 -0.1638088E-01  0.1146239E+06  0.1228089E+06
  0.2000000E+01  0.2434413E+05  0.2862576E+05 -0.4347563E-02 -0.2193779E-01  0.1069298E+06  0.1338503E+06
  0.2100000E+01  0.2274509E+05  0.3033918E+05  0.2190613E-03 -0.9686440E-02  0.9949454E+05  0.1422552E+06
  0.2200000E+01  0.2126968E+05  0.3152485E+05 -0.2395781E-02 -0.1973882E-01  0.9260153E+05  0.1482219E+06
  0.2300000E+01  0.1994859E+05  0.3224987E+05 -0.4683785E-02 -0.2172223E-01  0.8639740E+05  0.1520432E+06
  0.2400000E+01  0.1879067E+05  0.3259129E+05 -0.2024670E-02 -0.1028514E-01  0.8093066E+05  0.1540680E+06
  0.2500000E+01  0.1778937E+05  0.3263271E+05 -0.5241394E-03 -0.3745258E-02  0.7617641E+05  0.1546694E+06
  0.2600000E+01  0.1693470E+05  0.3242960E+05  0.1482872E-02 -0.9075642E-02  0.7209752E+05  0.1541121E+06
  0.2700000E+01  0.1621043E+05  0.3203036E+05 -0.3771076E-02 -0.4865289E-02  0.6861824E+05  0.1526041E+06
  0.2800000E+01  0.1560259E+05  0.3147962E+05 -0.3468905E-02  0.2921119E-02  0.6568016E+05  0.1503610E+06
  0.2900000E+01  0.1509338E+05  0.3081987E+05  0.1840016E-02  0.2871469E-02  0.6320519E+05  0.1475746E+06
  0.3000000E+01  0.1466782E+05  0.3003852E+05  0.5701542E-02  0.5549476E-02  0.6112635E+05  0.1441883E+06
  0.3100000E+01  0.1431056E+05  0.2912445E+05 -0.9290634E-04  0.3136858E-02  0.5937400E+05  0.1401443E+06
  0.3200000E+01  0.1400916E+05  0.2798341E+05  0.1789182E-02  0.1944944E-02  0.5791177E+05  0.1350318E+06
Zone t="Motion of body    1 in DoF   2",I=    32,F=POINT
  0.1000000E+00 -0.9667873E-03 -0.3399327E-07  0.1007995E+06  0.9650938E+02 -0.9686276E-02 -0.5349691E-05
  0.2000000E+00 -0.2977848E-02 -0.1128390E-04  0.1030835E+06  0.7544882E+03 -0.2441183E-02 -0.6170990E-04
  0.3000000E+00 -0.2765656E-03 -0.7197261E-05  0.1049129E+06  0.2447496E+04  0.4370064E-02  0.1214929E-03
  0.4000000E+00  0.3541112E-02  0.9363890E-04  0.1058322E+06  0.5479740E+04  0.7334575E-02  0.1189150E-03
  0.5000000E+00 -0.1617908E-02  0.4172325E-06  0.1053747E+06  0.9933188E+04 -0.1434416E-01 -0.1200728E-02
  0.6000001E+00 -0.3546873E-02  0.2877712E-03  0.1034419E+06  0.1566267E+05 -0.2243538E-01 -0.5809367E-03
  0.7000000E+00 -0.2415521E-02  0.2462864E-03  0.1002236E+06  0.2233873E+05 -0.1105509E-01 -0.6563962E-04
  0.8000001E+00 -0.1641154E-01 -0.1597404E-04  0.9588418E+05  0.2953506E+05 -0.8562590E-01 -0.1767278E-03
  0.9000000E+00  0.1028538E-01 -0.7390976E-05  0.9079020E+05  0.3681919E+05  0.5620811E-01 -0.2312511E-03
  0.1000000E+01  0.2851486E-02  0.3340244E-03  0.8529350E+05  0.4378893E+05  0.7498205E-02  0.5041361E-03
  0.1100000E+01  0.2222061E-02  0.7286072E-03  0.7970214E+05  0.5016766E+05  0.7838119E-02 -0.2117783E-02
  0.1200000E+01  0.4561742E-03  0.6496906E-03  0.7420663E+05  0.5576032E+05 -0.3511011E-02  0.8438557E-02
  0.1300000E+01  0.1923855E-02  0.7467270E-03  0.6905548E+05  0.6041615E+05  0.1040019E-01  0.3500640E-02
  0.1400000E+01  0.4405294E-02  0.1451254E-02  0.6431062E+05  0.6414634E+05  0.1664549E-01  0.2183557E-02
  0.1500000E+01 -0.8763313E-02 -0.1671791E-02  0.6001469E+05  0.6697604E+05 -0.4133745E-01 -0.6264001E-02
  0.1600000E+01 -0.5520284E-02 -0.3914833E-02  0.5619224E+05  0.6896184E+05 -0.2590932E-01 -0.1959521E-01
  0.1700000E+01 -0.1851250E-03  0.8513927E-03  0.5284306E+05  0.7018277E+05 -0.4717076E-02 -0.2906024E-02
  0.1800000E+01 -0.1060618E-01 -0.9890556E-02  0.4994535E+05  0.7072026E+05 -0.4760994E-01 -0.4909930E-01
  0.1900000E+01 -0.5108432E-02 -0.4780054E-02  0.4746873E+05  0.7067194E+05 -0.2350792E-01 -0.2195886E-01
  0.2000000E+01 -0.5636215E-02 -0.6970406E-02  0.4537305E+05  0.7011266E+05 -0.2744785E-01 -0.3778651E-01
  0.2100000E+01 -0.1597177E-02 -0.5244017E-02  0.4362405E+05  0.6912373E+05 -0.9241502E-02 -0.2000335E-01
  0.2200000E+01 -0.3332225E-02 -0.4271030E-02  0.4217614E+05  0.6777684E+05 -0.1792108E-01 -0.2172065E-01
  0.2300000E+01 -0.6824576E-02 -0.1074719E-01  0.4099113E+05  0.6611601E+05 -0.2829140E-01 -0.5078284E-01
  0.2400000E+01 -0.2069870E-02 -0.8552790E-02  0.4002840E+05  0.6415479E+05 -0.8951028E-02 -0.3543618E-01
  0.2500000E+01 -0.3322601E-03 -0.6856918E-03  0.3925512E+05  0.6188109E+05 -0.4738212E-02 -0.7790625E-03
  0.2600000E+01 -0.5920117E-03 -0.5089402E-02  0.3862781E+05  0.5910459E+05 -0.5138173E-02 -0.3144678E-01
  0.2700000E+01 -0.3776550E-02  0.9201407E-02  0.3802527E+05  0.5501860E+05 -0.1016873E-01  0.4351336E-01
  0.2800000E+01  0.7847037E-02 -0.2470553E-02  0.3610918E+05  0.4002225E+05  0.3506592E-01 -0.4188843E-02
  0.2900000E+01 -0.3374034E-03  0.1746869E-01  0.3812199E+05  0.6714031E+05 -0.5419501E-02  0.8592442E-01
  0.3000000E+01  0.3067017E-02  0.6789565E-02  0.3789631E+05  0.5816370E+05  0.1123373E-01  0.2775083E-01
  0.3100000E+01 -0.2828721E-02  0.8564353E-02  0.3779883E+05  0.5446922E+05 -0.7589864E-02  0.3193359E-01
  0.3200000E+01 -0.7152557E-05  0.6049395E-02  0.3777841E+05  0.5167292E+05 -0.2735481E-02  0.2332969E-01
Zone t="Motion of body    1 in DoF   3",I=    32,F=POINT
  0.1000000E+00  0.1131674E+06  0.8797203E-03 -0.2033263E-01 -0.2820971E-04  0.5096228E+06  0.3939653E-02
  0.2000000E+00  0.1137086E+06  0.1106441E+00 -0.4824251E-02 -0.2542489E-04  0.5119105E+06  0.4983073E+00
  0.3000000E+00  0.1145528E+06  0.1864472E+01  0.1722276E-02  0.4680170E-04  0.5158871E+06  0.8403646E+01
  0.4000000E+00  0.1153143E+06  0.1369122E+02 -0.1859471E-01 -0.1028042E-02  0.5193827E+06  0.6175997E+02
  0.5000000E+00  0.1166266E+06  0.6363190E+02 -0.3992009E-01 -0.4160953E-02  0.5254866E+06  0.2873634E+03
  0.6000001E+00  0.1184591E+06  0.2208871E+03 -0.4514237E-01 -0.8270018E-02  0.5340228E+06  0.9989016E+03
  0.7000000E+00  0.1206914E+06  0.6250863E+03 -0.8057237E-01 -0.2458911E-01  0.5444700E+06  0.2831260E+04
  0.8000001E+00  0.1232739E+06  0.1519793E+04 -0.3122534E+00 -0.1202075E+00  0.5563259E+06  0.6895440E+04
  0.9000000E+00  0.1267426E+06  0.3278491E+04  0.8692927E-01  0.4202045E-01  0.5726219E+06  0.1490428E+05
  0.1000000E+01  0.1301280E+06  0.6413267E+04  0.2735496E-01  0.1981239E-01  0.5882859E+06  0.2921509E+05
  0.1100000E+01  0.1338307E+06  0.1151302E+05  0.2303990E-02 -0.5406514E-02  0.6057883E+06  0.5256287E+05
  0.1200000E+01  0.1370353E+06  0.1918543E+05 -0.3630916E-02 -0.5152166E-02  0.6209334E+06  0.8780202E+05
  0.1300000E+01  0.1389509E+06  0.2981045E+05  0.8989665E-02  0.2489644E-01  0.6302233E+06  0.1367692E+06
  0.1400000E+01  0.1393923E+06  0.4334725E+05  0.1968792E-01  0.5657089E-01  0.6329195E+06  0.1993934E+06
  0.1500000E+01  0.1379061E+06  0.5921238E+05 -0.4079803E-01 -0.1005808E+00  0.6267339E+06  0.2730902E+06
  0.1600000E+01  0.1343397E+06  0.7633734E+05 -0.2788350E-01 -0.8307576E-01  0.6108951E+06  0.3530188E+06
  0.1700000E+01  0.1289019E+06  0.9339488E+05  0.2125852E-02 -0.1187527E-01  0.5863092E+06  0.4330855E+06
  0.1800000E+01  0.1221204E+06  0.1091634E+06 -0.5315715E-01 -0.1106514E+00  0.5553641E+06  0.5076049E+06
  0.1900000E+01  0.1145843E+06  0.1227951E+06 -0.2758591E-01 -0.8526182E-01  0.5207318E+06  0.5725754E+06
  0.2000000E+01  0.1068933E+06  0.1338310E+06 -0.2134740E-01 -0.8660150E-01  0.4851917E+06  0.6257600E+06
  0.2100000E+01  0.9945784E+05  0.1422343E+06 -0.7220337E-02 -0.4732895E-01  0.4506369E+06  0.6668897E+06
  0.2200000E+01  0.9256363E+05  0.1481948E+06 -0.1298720E-01 -0.9405756E-01  0.4184460E+06  0.6967439E+06
  0.2300000E+01  0.8636055E+05  0.1520125E+06 -0.1864081E-01 -0.9239841E-01  0.3893338E+06  0.7166269E+06
  0.2400000E+01  0.8089434E+05  0.1540348E+06  0.4832844E-02 -0.3825545E-01  0.3635445E+06  0.7281082E+06
  0.2500000E+01  0.7614039E+05  0.1546323E+06  0.2074146E-02 -0.1794076E-01  0.3409957E+06  0.7328469E+06
  0.2600000E+01  0.7205870E+05  0.1540705E+06  0.8345842E-02 -0.3326869E-01  0.3215332E+06  0.7320939E+06
  0.2700000E+01  0.6857941E+05  0.1525630E+06 -0.6671128E-02 -0.4138231E-02  0.3048416E+06  0.7267749E+06
  0.2800000E+01  0.6563802E+05  0.1503194E+06 -0.1392441E-01  0.2839863E-01  0.2906492E+06  0.7178939E+06
  0.2900000E+01  0.6315680E+05  0.1475289E+06  0.8755552E-02  0.1569259E-01  0.2786127E+06  0.7063174E+06
  0.3000000E+01  0.6107201E+05  0.1441393E+06  0.2260351E-01  0.1764077E-01  0.2684487E+06  0.6917985E+06
  0.3100000E+01  0.5931557E+05  0.1401078E+06  0.3748555E-02  0.2472204E-01  0.2598526E+06  0.6741109E+06
  0.3200000E+01  0.5783513E+05  0.1350010E+06 -0.1832843E-04  0.3965616E-02  0.2526737E+06  0.6513902E+06
