VARIABLES="w (rad/s)"
"abs(F   1   1)" "angle(F   1   1)"
"abs(F   1   2)" "angle(F   1   2)"
"abs(F   1   3)" "angle(F   1   3)"
Zone t="Diffraction force - beta =   0.000 deg",I=   100,F=POINT
  0.1000000E+00  0.6881152E-01 -0.1570796E+01  0.5079211E-01 -0.3141223E+01  0.2023147E+00 -0.1570796E+01
  0.3010101E+00  0.6224983E+00 -0.1570796E+01  0.4608576E+00 -0.3138262E+01  0.1830229E+01 -0.1570796E+01
  0.5020202E+00  0.1733062E+01 -0.1570796E+01  0.1290476E+01 -0.3132474E+01  0.5095430E+01 -0.1570796E+01
  0.7030303E+00  0.3410886E+01 -0.1570795E+01  0.2554689E+01 -0.3124117E+01  0.1002845E+02 -0.1570795E+01
  0.9040404E+00  0.5649485E+01 -0.1570790E+01  0.4235540E+01 -0.3113283E+01  0.1661024E+02 -0.1570790E+01
  0.1105051E+01  0.8453123E+01 -0.1570774E+01  0.6338108E+01 -0.3100297E+01  0.2485334E+02 -0.1570774E+01
  0.1306061E+01  0.1179562E+02 -0.1570736E+01  0.8852170E+01 -0.3085433E+01  0.3468070E+02 -0.1570736E+01
  0.1507071E+01  0.1564836E+02 -0.1570656E+01  0.1176196E+02 -0.3068982E+01  0.4600815E+02 -0.1570656E+01
  0.1708081E+01  0.2014035E+02 -0.1570503E+01  0.1504051E+02 -0.3051207E+01  0.5921514E+02 -0.1570503E+01
  0.1909091E+01  0.2505236E+02 -0.1570232E+01  0.1866185E+02 -0.3032410E+01  0.7365717E+02 -0.1570232E+01
  0.2110101E+01  0.3066143E+02 -0.1569787E+01  0.2257422E+02 -0.3012770E+01  0.9014835E+02 -0.1569786E+01
  0.2311111E+01  0.3665025E+02 -0.1569083E+01  0.2674135E+02 -0.2992575E+01  0.1077564E+03 -0.1569083E+01
  0.2512121E+01  0.4331738E+02 -0.1568030E+01  0.3113139E+02 -0.2972152E+01  0.1273583E+03 -0.1568030E+01
  0.2713131E+01  0.5058487E+02 -0.1566507E+01  0.3565275E+02 -0.2951475E+01  0.1487256E+03 -0.1566507E+01
  0.2914141E+01  0.5818981E+02 -0.1564355E+01  0.4030533E+02 -0.2931049E+01  0.1710848E+03 -0.1564355E+01
  0.3115151E+01  0.6655323E+02 -0.1561435E+01  0.4498388E+02 -0.2910740E+01  0.1956743E+03 -0.1561435E+01
  0.3316161E+01  0.7562851E+02 -0.1557561E+01  0.4967927E+02 -0.2890992E+01  0.2223562E+03 -0.1557561E+01
  0.3517171E+01  0.8515058E+02 -0.1552495E+01  0.5429588E+02 -0.2871672E+01  0.2503519E+03 -0.1552495E+01
  0.3718182E+01  0.9504575E+02 -0.1545988E+01  0.5882621E+02 -0.2853131E+01  0.2794442E+03 -0.1545988E+01
  0.3919192E+01  0.1058792E+03 -0.1537889E+01  0.6320442E+02 -0.2835398E+01  0.3112952E+03 -0.1537889E+01
  0.4120202E+01  0.1174608E+03 -0.1527919E+01  0.6735571E+02 -0.2818383E+01  0.3453463E+03 -0.1527918E+01
  0.4321212E+01  0.1295801E+03 -0.1515766E+01  0.7129980E+02 -0.2802516E+01  0.3809782E+03 -0.1515766E+01
  0.4522222E+01  0.1420090E+03 -0.1501092E+01  0.7497439E+02 -0.2787673E+01  0.4175195E+03 -0.1501091E+01
  0.4723232E+01  0.1548975E+03 -0.1483683E+01  0.7832682E+02 -0.2773754E+01  0.4554124E+03 -0.1483682E+01
  0.4924242E+01  0.1687142E+03 -0.1463505E+01  0.8135908E+02 -0.2761050E+01  0.4960351E+03 -0.1463504E+01
  0.5125252E+01  0.1830907E+03 -0.1440215E+01  0.8406110E+02 -0.2749711E+01  0.5383012E+03 -0.1440214E+01
  0.5326262E+01  0.1977304E+03 -0.1413492E+01  0.8637212E+02 -0.2739493E+01  0.5813435E+03 -0.1413491E+01
  0.5527273E+01  0.2123622E+03 -0.1383057E+01  0.8829173E+02 -0.2730484E+01  0.6243630E+03 -0.1383056E+01
  0.5728283E+01  0.2266446E+03 -0.1348657E+01  0.8985727E+02 -0.2722931E+01  0.6663522E+03 -0.1348656E+01
  0.5929293E+01  0.2405770E+03 -0.1310410E+01  0.9103690E+02 -0.2716769E+01  0.7073138E+03 -0.1310408E+01
  0.6130303E+01  0.2543205E+03 -0.1268723E+01  0.9179240E+02 -0.2711896E+01  0.7477201E+03 -0.1268721E+01
  0.6331313E+01  0.2673311E+03 -0.1223431E+01  0.9213367E+02 -0.2708469E+01  0.7859716E+03 -0.1223429E+01
  0.6532323E+01  0.2791180E+03 -0.1174519E+01  0.9210545E+02 -0.2706718E+01  0.8206251E+03 -0.1174516E+01
  0.6733334E+01  0.2892443E+03 -0.1122147E+01  0.9172019E+02 -0.2706674E+01  0.8503967E+03 -0.1122144E+01
  0.6934343E+01  0.2976038E+03 -0.1067128E+01  0.9094883E+02 -0.2708330E+01  0.8749714E+03 -0.1067124E+01
  0.7135354E+01  0.3039574E+03 -0.1009969E+01  0.8979974E+02 -0.2711785E+01  0.8936510E+03 -0.1009965E+01
  0.7336363E+01  0.3079406E+03 -0.9508938E+00  0.8830494E+02 -0.2717257E+01  0.9053607E+03 -0.9508897E+00
  0.7537374E+01  0.3093512E+03 -0.8904054E+00  0.8651189E+02 -0.2724933E+01  0.9095089E+03 -0.8904002E+00
  0.7738384E+01  0.3082195E+03 -0.8293887E+00  0.8443929E+02 -0.2735048E+01  0.9061798E+03 -0.8293854E+00
  0.7939394E+01  0.3045725E+03 -0.7683449E+00  0.8208611E+02 -0.2747756E+01  0.8954573E+03 -0.7683396E+00
  0.8140405E+01  0.2984174E+03 -0.7075111E+00  0.7947957E+02 -0.2763237E+01  0.8773613E+03 -0.7075047E+00
  0.8341414E+01  0.2900227E+03 -0.6473656E+00  0.7665672E+02 -0.2781867E+01  0.8526793E+03 -0.6473580E+00
  0.8542424E+01  0.2796430E+03 -0.5883459E+00  0.7366354E+02 -0.2804143E+01  0.8221619E+03 -0.5883384E+00
  0.8743435E+01  0.2675031E+03 -0.5305443E+00  0.7054282E+02 -0.2830365E+01  0.7864691E+03 -0.5305353E+00
  0.8944445E+01  0.2538356E+03 -0.4738471E+00  0.6733911E+02 -0.2860842E+01  0.7462871E+03 -0.4738368E+00
  0.9145455E+01  0.2390150E+03 -0.4183213E+00  0.6407832E+02 -0.2896383E+01  0.7027121E+03 -0.4183106E+00
  0.9346465E+01  0.2233099E+03 -0.3638604E+00  0.6080157E+02 -0.2937389E+01  0.6565392E+03 -0.3638472E+00
  0.9547475E+01  0.2068718E+03 -0.3099638E+00  0.5755806E+02 -0.2984226E+01  0.6082098E+03 -0.3099504E+00
  0.9748485E+01  0.1899920E+03 -0.2561857E+00  0.5441720E+02 -0.3037958E+01  0.5585822E+03 -0.2561705E+00
  0.9949495E+01  0.1728921E+03 -0.2020604E+00  0.5142687E+02 -0.3098758E+01  0.5083076E+03 -0.2020432E+00
  0.1015051E+02  0.1556822E+03 -0.1465365E+00  0.4863950E+02  0.3116363E+01  0.4577106E+03 -0.1465173E+00
  0.1035151E+02  0.1385657E+03 -0.8840880E-01  0.4610931E+02  0.3040665E+01  0.4073870E+03 -0.8838715E-01
  0.1055252E+02  0.1216898E+03 -0.2588744E-01  0.4387385E+02  0.2957570E+01  0.3577719E+03 -0.2586301E-01
  0.1075354E+02  0.1051765E+03  0.4369337E-01  0.4196887E+02  0.2867938E+01  0.3092234E+03  0.4372152E-01
  0.1095455E+02  0.8918588E+02  0.1243682E+00  0.4043750E+02  0.2773113E+01  0.2622107E+03  0.1244005E+00
  0.1115556E+02  0.7389666E+02  0.2232526E+00  0.3928236E+02  0.2674596E+01  0.2172606E+03  0.2232905E+00
  0.1135657E+02  0.5956983E+02  0.3525557E+00  0.3851852E+02  0.2574756E+01  0.1751399E+03  0.3526007E+00
  0.1155758E+02  0.4665668E+02  0.5344180E+00  0.3810881E+02  0.2476218E+01  0.1371760E+03  0.5344689E+00
  0.1175859E+02  0.3600340E+02  0.8081678E+00  0.3800806E+02  0.2380100E+01  0.1058568E+03  0.8082202E+00
  0.1195960E+02  0.2929473E+02  0.1216844E+01  0.3828482E+02  0.2287518E+01  0.8613448E+02  0.1216874E+01
  0.1216061E+02  0.2844860E+02  0.1709503E+01  0.3898856E+02  0.2197949E+01  0.8364709E+02  0.1709489E+01
  0.1236162E+02  0.3306213E+02  0.2121506E+01  0.4027652E+02  0.2112293E+01  0.9720956E+02  0.2121466E+01
  0.1256263E+02  0.4070106E+02  0.2397351E+01  0.4324446E+02  0.2024080E+01  0.1196666E+03  0.2397307E+01
  0.1276364E+02  0.4944621E+02  0.2577894E+01  0.5874314E+02  0.1902417E+01  0.1453765E+03  0.2577853E+01
  0.1296465E+02  0.5833069E+02  0.2703022E+01  0.1895176E+02  0.2285482E+01  0.1714961E+03  0.2702987E+01
  0.1316566E+02  0.6695558E+02  0.2795737E+01  0.2973948E+02  0.1962678E+01  0.1968524E+03  0.2795706E+01
  0.1336667E+02  0.7507451E+02  0.2868277E+01  0.3201493E+02  0.1880554E+01  0.2207217E+03  0.2868250E+01
  0.1356768E+02  0.8257722E+02  0.2927754E+01  0.3266325E+02  0.1822134E+01  0.2427794E+03  0.2927731E+01
  0.1376869E+02  0.8937336E+02  0.2978468E+01  0.3252987E+02  0.1773001E+01  0.2627601E+03  0.2978448E+01
  0.1396970E+02  0.9544441E+02  0.3023052E+01  0.3194456E+02  0.1727559E+01  0.2806089E+03  0.3023034E+01
  0.1417071E+02  0.1007059E+03  0.3063671E+01  0.3111369E+02  0.1684806E+01  0.2960767E+03  0.3063655E+01
  0.1437172E+02  0.1052230E+03  0.3101001E+01  0.2996039E+02  0.1642380E+01  0.3093571E+03  0.3100986E+01
  0.1457273E+02  0.1089454E+03  0.3135850E+01  0.2865362E+02  0.1600682E+01  0.3203003E+03  0.3135836E+01
  0.1477374E+02  0.1118719E+03 -0.3114084E+01  0.2708620E+02  0.1557019E+01  0.3289048E+03 -0.3114096E+01
  0.1497475E+02  0.1140038E+03 -0.3081134E+01  0.2534983E+02  0.1511531E+01  0.3351725E+03 -0.3081145E+01
  0.1517576E+02  0.1153367E+03 -0.3048383E+01  0.2341562E+02  0.1460919E+01  0.3390910E+03 -0.3048393E+01
  0.1537677E+02  0.1158868E+03 -0.3014687E+01  0.2135096E+02  0.1403952E+01  0.3407074E+03 -0.3014695E+01
  0.1557778E+02  0.1155772E+03 -0.2978293E+01  0.1916262E+02  0.1336225E+01  0.3397982E+03 -0.2978302E+01
  0.1577879E+02  0.1144299E+03 -0.2934158E+01  0.1692295E+02  0.1253477E+01  0.3364245E+03 -0.2934165E+01
  0.1597980E+02  0.1117895E+03 -0.2864240E+01  0.1468820E+02  0.1146903E+01  0.3286616E+03 -0.2864248E+01
  0.1618081E+02  0.9908406E+02 -0.2589037E+01  0.1256366E+02  0.1005952E+01  0.2913067E+03 -0.2589043E+01
  0.1638182E+02  0.1093351E+03  0.3134766E+01  0.1070361E+02  0.8161509E+00  0.3214473E+03  0.3134760E+01
  0.1658283E+02  0.1068343E+03 -0.2975990E+01  0.9306225E+01  0.5632422E+00  0.3140945E+03 -0.2975995E+01
  0.1678384E+02  0.1027516E+03 -0.2913631E+01  0.8611460E+01  0.2534438E+00  0.3020909E+03 -0.2913636E+01
  0.1698485E+02  0.9828988E+02 -0.2869139E+01  0.8754920E+01 -0.7032730E-01  0.2889734E+03 -0.2869143E+01
  0.1718586E+02  0.9338400E+02 -0.2830290E+01  0.9651005E+01 -0.3511050E+00  0.2745503E+03 -0.2830294E+01
  0.1738687E+02  0.8803812E+02 -0.2793195E+01  0.1105939E+02 -0.5658067E+00  0.2588335E+03 -0.2793199E+01
  0.1758788E+02  0.8246809E+02 -0.2755733E+01  0.1272448E+02 -0.7230086E+00  0.2424566E+03 -0.2755736E+01
  0.1778889E+02  0.7657597E+02 -0.2717199E+01  0.1448971E+02 -0.8376932E+00  0.2251343E+03 -0.2717203E+01
  0.1798990E+02  0.7047742E+02 -0.2676326E+01  0.1622333E+02 -0.9228114E+00  0.2072046E+03 -0.2676329E+01
  0.1819091E+02  0.6418909E+02 -0.2631716E+01  0.1786440E+02 -0.9865448E+00  0.1887164E+03 -0.2631717E+01
  0.1839192E+02  0.5779749E+02 -0.2581858E+01  0.1936142E+02 -0.1034924E+01  0.1699253E+03 -0.2581860E+01
  0.1859293E+02  0.5138180E+02 -0.2525185E+01  0.2071533E+02 -0.1071609E+01  0.1510630E+03 -0.2525187E+01
  0.1879394E+02  0.4495252E+02 -0.2459512E+01  0.2175273E+02 -0.1093810E+01  0.1321611E+03 -0.2459514E+01
  0.1899495E+02  0.3867473E+02 -0.2380239E+01  0.2266075E+02 -0.1103299E+01  0.1137042E+03 -0.2380239E+01
  0.1919596E+02  0.3263926E+02 -0.2280788E+01  0.2342626E+02 -0.1088735E+01  0.9595988E+02 -0.2280787E+01
  0.1939697E+02  0.2697099E+02 -0.2149789E+01  0.2422994E+02 -0.9840406E+00  0.7929513E+02 -0.2149789E+01
  0.1959798E+02  0.2188688E+02 -0.1970907E+01  0.3080330E+01 -0.1672333E+00  0.6434789E+02 -0.1970908E+01
  0.1979899E+02  0.1772461E+02 -0.1720312E+01  0.2001929E+02 -0.1503237E+01  0.5211077E+02 -0.1720312E+01
  0.2000000E+02  0.1499836E+02 -0.1379435E+01  0.2102773E+02 -0.1416992E+01  0.4409562E+02 -0.1379436E+01
