VARIABLES="w (rad/s)"
"abs(F   1   1)" "angle(F   1   1)"
"abs(F   1   2)" "angle(F   1   2)"
"abs(F   1   3)" "angle(F   1   3)"
Zone t="Diffraction force - beta =   0.000 deg",I=   100,F=POINT
  0.1000000E+00  0.1820003E+00 -0.1570779E+01  0.5964687E+03 -0.3148197E-07  0.5351076E+00 -0.1570804E+01
  0.3010101E+00  0.1647352E+01 -0.1570799E+01  0.5951458E+03 -0.2579109E-05  0.4843465E+01 -0.1570797E+01
  0.5020202E+00  0.4579709E+01 -0.1570796E+01  0.5924935E+03 -0.1986065E-04  0.1346502E+02 -0.1570800E+01
  0.7030303E+00  0.8981781E+01 -0.1570796E+01  0.5885036E+03 -0.7585830E-04  0.2640782E+02 -0.1570796E+01
  0.9040404E+00  0.1483564E+02 -0.1570794E+01  0.5832027E+03 -0.2055735E-03  0.4361903E+02 -0.1570795E+01
  0.1105051E+01  0.2213029E+02 -0.1570788E+01  0.5766011E+03 -0.4538010E-03  0.6506645E+02 -0.1570788E+01
  0.1306061E+01  0.3082070E+02 -0.1570773E+01  0.5687269E+03 -0.8736594E-03  0.9061741E+02 -0.1570773E+01
  0.1507071E+01  0.4085561E+02 -0.1570742E+01  0.5596189E+03 -0.1524779E-02  0.1201215E+03 -0.1570742E+01
  0.1708081E+01  0.5233792E+02 -0.1570683E+01  0.5493334E+03 -0.2471352E-02  0.1538810E+03 -0.1570684E+01
  0.1909091E+01  0.6501884E+02 -0.1570579E+01  0.5379243E+03 -0.3780293E-02  0.1911649E+03 -0.1570579E+01
  0.2110101E+01  0.7914267E+02 -0.1570405E+01  0.5254822E+03 -0.5518837E-02  0.2326905E+03 -0.1570405E+01
  0.2311111E+01  0.9435564E+02 -0.1570131E+01  0.5120798E+03 -0.7753172E-02  0.2774191E+03 -0.1570131E+01
  0.2512121E+01  0.1109173E+03 -0.1569716E+01  0.4977925E+03 -0.1054619E-01  0.3261124E+03 -0.1569716E+01
  0.2713131E+01  0.1287074E+03 -0.1569110E+01  0.4827547E+03 -0.1395674E-01  0.3784174E+03 -0.1569110E+01
  0.2914141E+01  0.1474179E+03 -0.1568254E+01  0.4670102E+03 -0.1803800E-01  0.4334281E+03 -0.1568254E+01
  0.3115151E+01  0.1674220E+03 -0.1567075E+01  0.4507127E+03 -0.2283840E-01  0.4922432E+03 -0.1567075E+01
  0.3316161E+01  0.1886224E+03 -0.1565490E+01  0.4339152E+03 -0.2839592E-01  0.5545740E+03 -0.1565490E+01
  0.3517171E+01  0.2107004E+03 -0.1563400E+01  0.4167598E+03 -0.3474708E-01  0.6194863E+03 -0.1563400E+01
  0.3718182E+01  0.2335265E+03 -0.1560700E+01  0.3992988E+03 -0.4192261E-01  0.6865964E+03 -0.1560700E+01
  0.3919192E+01  0.2576061E+03 -0.1557273E+01  0.3816390E+03 -0.4994193E-01  0.7573925E+03 -0.1557273E+01
  0.4120202E+01  0.2826859E+03 -0.1552984E+01  0.3638994E+03 -0.5882204E-01  0.8311295E+03 -0.1552984E+01
  0.4321212E+01  0.3084877E+03 -0.1547690E+01  0.3460984E+03 -0.6857611E-01  0.9069898E+03 -0.1547690E+01
  0.4522222E+01  0.3347103E+03 -0.1541242E+01  0.3283373E+03 -0.7922222E-01  0.9840859E+03 -0.1541242E+01
  0.4723232E+01  0.3614240E+03 -0.1533500E+01  0.3107108E+03 -0.9077578E-01  0.1062627E+04 -0.1533500E+01
  0.4924242E+01  0.3890107E+03 -0.1524336E+01  0.2932473E+03 -0.1032319E+00  0.1143735E+04 -0.1524336E+01
  0.5125252E+01  0.4170041E+03 -0.1513594E+01  0.2759890E+03 -0.1165921E+00  0.1226034E+04 -0.1513595E+01
  0.5326262E+01  0.4449985E+03 -0.1501131E+01  0.2590372E+03 -0.1308636E+00  0.1308341E+04 -0.1501131E+01
  0.5527273E+01  0.4725988E+03 -0.1486832E+01  0.2424233E+03 -0.1460645E+00  0.1389488E+04 -0.1486832E+01
  0.5728283E+01  0.4993262E+03 -0.1470627E+01  0.2261431E+03 -0.1622476E+00  0.1468067E+04 -0.1470627E+01
  0.5929293E+01  0.5250338E+03 -0.1452552E+01  0.2102594E+03 -0.1794157E+00  0.1543647E+04 -0.1452552E+01
  0.6130303E+01  0.5497370E+03 -0.1432728E+01  0.1948455E+03 -0.1975417E+00  0.1616278E+04 -0.1432728E+01
  0.6331313E+01  0.5727291E+03 -0.1411222E+01  0.1799171E+03 -0.2166182E+00  0.1683873E+04 -0.1411222E+01
  0.6532323E+01  0.5933552E+03 -0.1388213E+01  0.1654595E+03 -0.2367259E+00  0.1744513E+04 -0.1388212E+01
  0.6733334E+01  0.6110284E+03 -0.1364000E+01  0.1514940E+03 -0.2579440E+00  0.1796474E+04 -0.1364000E+01
  0.6934343E+01  0.6255533E+03 -0.1339115E+01  0.1380768E+03 -0.2801893E+00  0.1839173E+04 -0.1339115E+01
  0.7135354E+01  0.6366217E+03 -0.1314033E+01  0.1252270E+03 -0.3034463E+00  0.1871715E+04 -0.1314033E+01
  0.7336363E+01  0.6438267E+03 -0.1289220E+01  0.1129406E+03 -0.3277445E+00  0.1892893E+04 -0.1289220E+01
  0.7537374E+01  0.6469916E+03 -0.1265270E+01  0.1012029E+03 -0.3532610E+00  0.1902201E+04 -0.1265270E+01
  0.7738384E+01  0.6462659E+03 -0.1242871E+01  0.9002087E+02 -0.3799990E+00  0.1900067E+04 -0.1242873E+01
  0.7939394E+01  0.6418146E+03 -0.1222571E+01  0.7941942E+02 -0.4078308E+00  0.1886977E+04 -0.1222571E+01
  0.8140405E+01  0.6338030E+03 -0.1204856E+01  0.6940277E+02 -0.4367825E+00  0.1863419E+04 -0.1204856E+01
  0.8341414E+01  0.6227063E+03 -0.1190157E+01  0.5995846E+02 -0.4668251E+00  0.1830794E+04 -0.1190157E+01
  0.8542424E+01  0.6090130E+03 -0.1178871E+01  0.5106410E+02 -0.4979308E+00  0.1790533E+04 -0.1178871E+01
  0.8743435E+01  0.5931511E+03 -0.1171261E+01  0.4271296E+02 -0.5302534E+00  0.1743896E+04 -0.1171261E+01
  0.8944445E+01  0.5755274E+03 -0.1167498E+01  0.3489820E+02 -0.5640864E+00  0.1692081E+04 -0.1167498E+01
  0.9145455E+01  0.5566863E+03 -0.1167632E+01  0.2760309E+02 -0.5986730E+00  0.1636686E+04 -0.1167632E+01
  0.9346465E+01  0.5370409E+03 -0.1171693E+01  0.2082318E+02 -0.6336858E+00  0.1578925E+04 -0.1171692E+01
  0.9547475E+01  0.5168450E+03 -0.1179719E+01  0.1455077E+02 -0.6686471E+00  0.1519546E+04 -0.1179719E+01
  0.9748485E+01  0.4964463E+03 -0.1191557E+01  0.8734186E+01 -0.7004052E+00  0.1459573E+04 -0.1191557E+01
  0.9949495E+01  0.4761259E+03 -0.1207096E+01  0.3373221E+01 -0.7113303E+00  0.1399828E+04 -0.1207096E+01
  0.1015051E+02  0.4560116E+03 -0.1226280E+01  0.1563115E+01  0.2238917E+01  0.1340691E+04 -0.1226280E+01
  0.1035151E+02  0.4362814E+03 -0.1248900E+01  0.6076130E+01  0.2271172E+01  0.1282684E+04 -0.1248901E+01
  0.1055252E+02  0.4170454E+03 -0.1274800E+01  0.1020454E+02  0.2236088E+01  0.1226125E+04 -0.1274800E+01
  0.1075354E+02  0.3983733E+03 -0.1303875E+01  0.1395975E+02  0.2193181E+01  0.1171232E+04 -0.1303874E+01
  0.1095455E+02  0.3803396E+03 -0.1335965E+01  0.1737602E+02  0.2147522E+01  0.1118211E+04 -0.1335964E+01
  0.1115556E+02  0.3629622E+03 -0.1370927E+01  0.2047723E+02  0.2099126E+01  0.1067119E+04 -0.1370927E+01
  0.1135657E+02  0.3462656E+03 -0.1408632E+01  0.2330063E+02  0.2049344E+01  0.1018030E+04 -0.1408632E+01
  0.1155758E+02  0.3302683E+03 -0.1448923E+01  0.2585458E+02  0.1998406E+01  0.9709959E+03 -0.1448923E+01
  0.1175859E+02  0.3149637E+03 -0.1491746E+01  0.2817669E+02  0.1945113E+01  0.9260002E+03 -0.1491746E+01
  0.1195960E+02  0.3003172E+03 -0.1536979E+01  0.3040788E+02  0.1890679E+01  0.8829404E+03 -0.1536979E+01
  0.1216061E+02  0.2863225E+03 -0.1584534E+01  0.3269641E+02  0.1834152E+01  0.8417949E+03 -0.1584534E+01
  0.1236162E+02  0.2729821E+03 -0.1634217E+01  0.3526575E+02  0.1777576E+01  0.8025744E+03 -0.1634217E+01
  0.1256263E+02  0.2602480E+03 -0.1686095E+01  0.3932711E+02  0.1722175E+01  0.7651356E+03 -0.1686094E+01
  0.1276364E+02  0.2481142E+03 -0.1740058E+01  0.5590163E+02  0.1684198E+01  0.7294599E+03 -0.1740058E+01
  0.1296465E+02  0.2365638E+03 -0.1795932E+01  0.1432107E+02  0.1539935E+01  0.6955015E+03 -0.1795932E+01
  0.1316566E+02  0.2255634E+03 -0.1853819E+01  0.2754404E+02  0.1505306E+01  0.6631591E+03 -0.1853819E+01
  0.1336667E+02  0.2150821E+03 -0.1913563E+01  0.3073975E+02  0.1443560E+01  0.6323439E+03 -0.1913563E+01
  0.1356768E+02  0.2050993E+03 -0.1975178E+01  0.3223884E+02  0.1377266E+01  0.6029972E+03 -0.1975176E+01
  0.1376869E+02  0.1956004E+03 -0.2038516E+01  0.3300318E+02  0.1307653E+01  0.5750693E+03 -0.2038515E+01
  0.1396970E+02  0.1865695E+03 -0.2103641E+01  0.3342188E+02  0.1234786E+01  0.5485175E+03 -0.2103641E+01
  0.1417071E+02  0.1779986E+03 -0.2170080E+01  0.3369861E+02  0.1161243E+01  0.5233184E+03 -0.2170079E+01
  0.1437172E+02  0.1698540E+03 -0.2238240E+01  0.3380130E+02  0.1084560E+01  0.4993727E+03 -0.2238240E+01
  0.1457273E+02  0.1620868E+03 -0.2307879E+01  0.3385904E+02  0.1008221E+01  0.4765367E+03 -0.2307879E+01
  0.1477374E+02  0.1546894E+03 -0.2378829E+01  0.3380676E+02  0.9291819E+00  0.4547888E+03 -0.2378829E+01
  0.1497475E+02  0.1476824E+03 -0.2450487E+01  0.3369254E+02  0.8496753E+00  0.4341882E+03 -0.2450487E+01
  0.1517576E+02  0.1409815E+03 -0.2522743E+01  0.3350897E+02  0.7678257E+00  0.4144875E+03 -0.2522743E+01
  0.1537677E+02  0.1345730E+03 -0.2594844E+01  0.3327760E+02  0.6850247E+00  0.3956455E+03 -0.2594842E+01
  0.1557778E+02  0.1283358E+03 -0.2665087E+01  0.3299834E+02  0.6002046E+00  0.3773088E+03 -0.2665088E+01
  0.1577879E+02  0.1222363E+03 -0.2728961E+01  0.3268629E+02  0.5142599E+00  0.3593759E+03 -0.2728960E+01
  0.1597980E+02  0.1154714E+03 -0.2768259E+01  0.3235353E+02  0.4266352E+00  0.3394869E+03 -0.2768260E+01
  0.1618081E+02  0.9820448E+02 -0.2603738E+01  0.3200152E+02  0.3380145E+00  0.2887217E+03 -0.2603738E+01
  0.1638182E+02  0.1103343E+03  0.3006735E+01  0.3163714E+02  0.2490404E+00  0.3243851E+03  0.3006734E+01
  0.1658283E+02  0.1056759E+03  0.3065825E+01  0.3126119E+02  0.1596242E+00  0.3106890E+03  0.3065825E+01
  0.1678384E+02  0.1009325E+03  0.3012549E+01  0.3087282E+02  0.6999673E-01  0.2967432E+03  0.3012548E+01
  0.1698485E+02  0.9662948E+02  0.2939570E+01  0.3046520E+02 -0.2019492E-01  0.2840921E+03  0.2939569E+01
  0.1718586E+02  0.9257829E+02  0.2858585E+01  0.3003879E+02 -0.1107274E+00  0.2721818E+03  0.2858585E+01
  0.1738687E+02  0.8871091E+02  0.2772881E+01  0.2960331E+02 -0.2016421E+00  0.2608117E+03  0.2772882E+01
  0.1758788E+02  0.8510847E+02  0.2685391E+01  0.2914350E+02 -0.2930601E+00  0.2502201E+03  0.2685388E+01
  0.1778889E+02  0.8166241E+02  0.2595437E+01  0.2867602E+02 -0.3849166E+00  0.2400891E+03  0.2595436E+01
  0.1798990E+02  0.7837893E+02  0.2504126E+01  0.2818317E+02 -0.4768219E+00  0.2304353E+03  0.2504127E+01
  0.1819091E+02  0.7520222E+02  0.2411308E+01  0.2768159E+02 -0.5684250E+00  0.2210954E+03  0.2411308E+01
  0.1839192E+02  0.7212605E+02  0.2317267E+01  0.2716803E+02 -0.6595448E+00  0.2120521E+03  0.2317265E+01
  0.1859293E+02  0.6916139E+02  0.2222068E+01  0.2667533E+02 -0.7502323E+00  0.2033363E+03  0.2222064E+01
  0.1879394E+02  0.6632692E+02  0.2124810E+01  0.2608705E+02 -0.8342296E+00  0.1950024E+03  0.2124811E+01
  0.1899495E+02  0.6358981E+02  0.2026696E+01  0.2557122E+02 -0.9125947E+00  0.1869550E+03  0.2026696E+01
  0.1919596E+02  0.6093502E+02  0.1927454E+01  0.2512734E+02 -0.9720762E+00  0.1791502E+03  0.1927453E+01
  0.1939697E+02  0.5834895E+02  0.1826500E+01  0.2490134E+02 -0.9446443E+00  0.1715473E+03  0.1826499E+01
  0.1959798E+02  0.5585782E+02  0.1724021E+01  0.2186062E+01 -0.2367530E+00  0.1642225E+03  0.1724022E+01
  0.1979899E+02  0.5346553E+02  0.1620198E+01  0.2003685E+02 -0.1650263E+01  0.1571899E+03  0.1620198E+01
  0.2000000E+02  0.5115653E+02  0.1515004E+01  0.2084598E+02 -0.1650672E+01  0.1504010E+03  0.1515004E+01
