VARIABLES="w (rad/s)"
"abs(F   1   1)" "angle(F   1   1)"
"abs(F   1   2)" "angle(F   1   2)"
"abs(F   1   3)" "angle(F   1   3)"
Zone t="FKforce - beta =   0.000",I=   100,F=POINT
  0.1000000E+00  0.1131888E+00 -0.1570769E+01  0.5965195E+03 -0.2988351E-12  0.3327929E+00 -0.1570809E+01
  0.3010101E+00  0.1024854E+01 -0.1570800E+01  0.5956066E+03 -0.1241150E-10  0.3013236E+01 -0.1570797E+01
  0.5020202E+00  0.2846647E+01 -0.1570796E+01  0.5937839E+03  0.3038879E-11  0.8369591E+01 -0.1570803E+01
  0.7030303E+00  0.5570895E+01 -0.1570796E+01  0.5910579E+03 -0.5140681E-10  0.1637937E+02 -0.1570797E+01
  0.9040404E+00  0.9186155E+01 -0.1570796E+01  0.5874365E+03 -0.9314233E-10  0.2700879E+02 -0.1570798E+01
  0.1105051E+01  0.1367717E+02 -0.1570797E+01  0.5829337E+03 -0.5192354E-10  0.4021311E+02 -0.1570796E+01
  0.1306061E+01  0.1902508E+02 -0.1570796E+01  0.5775648E+03 -0.6933745E-10  0.5593671E+02 -0.1570796E+01
  0.1507071E+01  0.2520725E+02 -0.1570796E+01  0.5713492E+03 -0.5379134E-09  0.7411336E+02 -0.1570796E+01
  0.1708081E+01  0.3219757E+02 -0.1570796E+01  0.5643109E+03 -0.3960892E-10  0.9466582E+02 -0.1570797E+01
  0.1909091E+01  0.3996649E+02 -0.1570796E+01  0.5564712E+03 -0.2493697E-09  0.1175078E+03 -0.1570797E+01
  0.2110101E+01  0.4848125E+02 -0.1570796E+01  0.5478613E+03 -0.1291942E-09  0.1425422E+03 -0.1570796E+01
  0.2311111E+01  0.5770543E+02 -0.1570796E+01  0.5385094E+03 -0.5153747E-09  0.1696628E+03 -0.1570796E+01
  0.2512121E+01  0.6759998E+02 -0.1570796E+01  0.5284504E+03 -0.4335418E-09  0.1987544E+03 -0.1570796E+01
  0.2713131E+01  0.7812281E+02 -0.1570796E+01  0.5177180E+03 -0.5936368E-09  0.2296926E+03 -0.1570796E+01
  0.2914141E+01  0.8922886E+02 -0.1570796E+01  0.5063495E+03 -0.1945967E-08  0.2623455E+03 -0.1570796E+01
  0.3115151E+01  0.1008705E+03 -0.1570796E+01  0.4943857E+03 -0.2343444E-08  0.2965741E+03 -0.1570796E+01
  0.3316161E+01  0.1129979E+03 -0.1570796E+01  0.4818677E+03 -0.5295694E-09  0.3322294E+03 -0.1570796E+01
  0.3517171E+01  0.1255583E+03 -0.1570796E+01  0.4688382E+03 -0.1493809E-08  0.3691594E+03 -0.1570796E+01
  0.3718182E+01  0.1384981E+03 -0.1570796E+01  0.4553436E+03 -0.8263086E-09  0.4072032E+03 -0.1570796E+01
  0.3919192E+01  0.1517607E+03 -0.1570796E+01  0.4414278E+03  0.1384026E-08  0.4461965E+03 -0.1570796E+01
  0.4120202E+01  0.1652882E+03 -0.1570796E+01  0.4271381E+03 -0.1046581E-08  0.4859688E+03 -0.1570796E+01
  0.4321212E+01  0.1790214E+03 -0.1570796E+01  0.4125251E+03 -0.1905426E-08  0.5263462E+03 -0.1570796E+01
  0.4522222E+01  0.1929000E+03 -0.1570796E+01  0.3976351E+03 -0.1292869E-08  0.5671505E+03 -0.1570796E+01
  0.4723232E+01  0.2068625E+03 -0.1570796E+01  0.3825188E+03 -0.2571054E-08  0.6082021E+03 -0.1570796E+01
  0.4924242E+01  0.2208468E+03 -0.1570796E+01  0.3672251E+03 -0.3631707E-08  0.6493177E+03 -0.1570796E+01
  0.5125252E+01  0.2347901E+03 -0.1570796E+01  0.3518039E+03 -0.1874273E-08  0.6903109E+03 -0.1570796E+01
  0.5326262E+01  0.2486301E+03 -0.1570796E+01  0.3363055E+03 -0.3024049E-08  0.7310013E+03 -0.1570796E+01
  0.5527273E+01  0.2623031E+03 -0.1570796E+01  0.3207770E+03 -0.6387333E-09  0.7712012E+03 -0.1570796E+01
  0.5728283E+01  0.2757476E+03 -0.1570796E+01  0.3052697E+03 -0.4686059E-08  0.8107294E+03 -0.1570796E+01
  0.5929293E+01  0.2889004E+03 -0.1570796E+01  0.2898291E+03 -0.2750629E-08  0.8493982E+03 -0.1570796E+01
  0.6130303E+01  0.3017002E+03 -0.1570796E+01  0.2745039E+03 -0.7192626E-08  0.8870327E+03 -0.1570796E+01
  0.6331313E+01  0.3140885E+03 -0.1570796E+01  0.2593384E+03 -0.3835346E-08  0.9234526E+03 -0.1570796E+01
  0.6532323E+01  0.3260048E+03 -0.1570796E+01  0.2443775E+03 -0.1170739E-07  0.9584858E+03 -0.1570796E+01
  0.6733334E+01  0.3373909E+03 -0.1570796E+01  0.2296635E+03 -0.8986238E-08  0.9919624E+03 -0.1570796E+01
  0.6934343E+01  0.3481928E+03 -0.1570796E+01  0.2152375E+03 -0.3980797E-08  0.1023719E+04 -0.1570796E+01
  0.7135354E+01  0.3583555E+03 -0.1570796E+01  0.2011378E+03 -0.1494651E-07  0.1053599E+04 -0.1570796E+01
  0.7336363E+01  0.3678284E+03 -0.1570796E+01  0.1874022E+03 -0.2047494E-08  0.1081446E+04 -0.1570796E+01
  0.7537374E+01  0.3765616E+03 -0.1570796E+01  0.1740640E+03 -0.5264854E-08  0.1107125E+04 -0.1570796E+01
  0.7738384E+01  0.3845104E+03 -0.1570796E+01  0.1611561E+03 -0.2880258E-07  0.1130496E+04 -0.1570796E+01
  0.7939394E+01  0.3916313E+03 -0.1570796E+01  0.1487076E+03 -0.6463186E-08  0.1151429E+04 -0.1570796E+01
  0.8140405E+01  0.3978829E+03 -0.1570796E+01  0.1367453E+03 -0.1501065E-07  0.1169806E+04 -0.1570796E+01
  0.8341414E+01  0.4032286E+03 -0.1570796E+01  0.1252932E+03 -0.2937578E-07  0.1185524E+04 -0.1570796E+01
  0.8542424E+01  0.4076369E+03 -0.1570796E+01  0.1143726E+03  0.8273165E-08  0.1198483E+04 -0.1570796E+01
  0.8743435E+01  0.4110782E+03 -0.1570796E+01  0.1040014E+03  0.5158026E-08  0.1208600E+04 -0.1570796E+01
  0.8944445E+01  0.4135254E+03 -0.1570796E+01  0.9419431E+02 -0.8503035E-08  0.1215794E+04 -0.1570796E+01
  0.9145455E+01  0.4149591E+03 -0.1570796E+01  0.8496399E+02 -0.2385196E-07  0.1220010E+04 -0.1570796E+01
  0.9346465E+01  0.4153622E+03 -0.1570796E+01  0.7631866E+02 -0.2801827E-07  0.1221193E+04 -0.1570796E+01
  0.9547475E+01  0.4147217E+03 -0.1570796E+01  0.6826426E+02 -0.4966016E-08  0.1219308E+04 -0.1570796E+01
  0.9748485E+01  0.4130294E+03 -0.1570796E+01  0.6080323E+02 -0.9496535E-08  0.1214333E+04 -0.1570796E+01
  0.9949495E+01  0.4102835E+03 -0.1570796E+01  0.5393489E+02 -0.1616241E-07  0.1206258E+04 -0.1570796E+01
  0.1015051E+02  0.4064843E+03 -0.1570796E+01  0.4765565E+02 -0.3126840E-09  0.1195088E+04 -0.1570796E+01
  0.1035151E+02  0.4016383E+03 -0.1570796E+01  0.4195857E+02 -0.5273827E-07  0.1180841E+04 -0.1570796E+01
  0.1055252E+02  0.3957591E+03 -0.1570796E+01  0.3683392E+02  0.1011375E-09  0.1163551E+04 -0.1570796E+01
  0.1075354E+02  0.3888599E+03 -0.1570796E+01  0.3226902E+02  0.6268652E-07  0.1143271E+04 -0.1570796E+01
  0.1095455E+02  0.3809639E+03 -0.1570796E+01  0.2824834E+02  0.2901282E-08  0.1120055E+04 -0.1570796E+01
  0.1115556E+02  0.3720975E+03 -0.1570796E+01  0.2475379E+02 -0.4853423E-07  0.1093985E+04 -0.1570796E+01
  0.1135657E+02  0.3622920E+03 -0.1570796E+01  0.2176464E+02 -0.8335615E-07  0.1065156E+04 -0.1570796E+01
  0.1155758E+02  0.3515827E+03 -0.1570796E+01  0.1925784E+02 -0.2369675E-07  0.1033669E+04 -0.1570796E+01
  0.1175859E+02  0.3400114E+03 -0.1570796E+01  0.1720806E+02  0.4329704E-09  0.9996492E+03 -0.1570796E+01
  0.1195960E+02  0.3276243E+03 -0.1570796E+01  0.1558801E+02  0.1188947E-06  0.9632315E+03 -0.1570796E+01
  0.1216061E+02  0.3144709E+03 -0.1570796E+01  0.1436853E+02  0.2553783E-07  0.9245593E+03 -0.1570796E+01
  0.1236162E+02  0.3006073E+03 -0.1570796E+01  0.1351891E+02 -0.6861478E-07  0.8838004E+03 -0.1570796E+01
  0.1256263E+02  0.2860916E+03 -0.1570796E+01  0.1300704E+02 -0.1835861E-06  0.8411232E+03 -0.1570796E+01
  0.1276364E+02  0.2709884E+03 -0.1570796E+01  0.1279961E+02  0.1819045E-07  0.7967175E+03 -0.1570796E+01
  0.1296465E+02  0.2553637E+03 -0.1570796E+01  0.1286250E+02 -0.6922018E-07  0.7507803E+03 -0.1570796E+01
  0.1316566E+02  0.2392876E+03 -0.1570796E+01  0.1316092E+02 -0.1517185E-06  0.7035148E+03 -0.1570796E+01
  0.1336667E+02  0.2228350E+03 -0.1570796E+01  0.1365971E+02 -0.5522599E-08  0.6551436E+03 -0.1570796E+01
  0.1356768E+02  0.2060812E+03 -0.1570796E+01  0.1432365E+02  0.1412233E-06  0.6058898E+03 -0.1570796E+01
  0.1376869E+02  0.1891071E+03 -0.1570796E+01  0.1511765E+02  0.5088570E-07  0.5559843E+03 -0.1570796E+01
  0.1396970E+02  0.1719921E+03 -0.1570796E+01  0.1600719E+02 -0.6516330E-08  0.5056649E+03 -0.1570796E+01
  0.1417071E+02  0.1548198E+03 -0.1570796E+01  0.1695835E+02  0.7694045E-07  0.4551775E+03 -0.1570796E+01
  0.1437172E+02  0.1376744E+03 -0.1570796E+01  0.1793824E+02  0.6090013E-07  0.4047690E+03 -0.1570796E+01
  0.1457273E+02  0.1206399E+03 -0.1570796E+01  0.1891549E+02  0.4480475E-07  0.3546872E+03 -0.1570796E+01
  0.1477374E+02  0.1038012E+03 -0.1570796E+01  0.1985983E+02  0.3514765E-07  0.3051808E+03 -0.1570796E+01
  0.1497475E+02  0.8724293E+02 -0.1570796E+01  0.2074324E+02  0.8137699E-07  0.2564989E+03 -0.1570796E+01
  0.1517576E+02  0.7104819E+02 -0.1570796E+01  0.2153944E+02  0.3072060E-07  0.2088860E+03 -0.1570796E+01
  0.1537677E+02  0.5529896E+02 -0.1570796E+01  0.2222450E+02  0.2723840E-08  0.1625826E+03 -0.1570796E+01
  0.1557778E+02  0.4007476E+02 -0.1570796E+01  0.2277700E+02  0.6916328E-07  0.1178228E+03 -0.1570796E+01
  0.1577879E+02  0.2545258E+02 -0.1570796E+01  0.2317823E+02  0.5217492E-07  0.7483340E+02 -0.1570796E+01
  0.1597980E+02  0.1150575E+02 -0.1570796E+01  0.2341203E+02  0.4733779E-07  0.3382927E+02 -0.1570796E+01
  0.1618081E+02  0.1696038E+01  0.1570796E+01  0.2346558E+02  0.2564894E-07  0.4984436E+01  0.1570794E+01
  0.1638182E+02  0.1408801E+02  0.1570796E+01  0.2332882E+02  0.2646798E-07  0.4141725E+02  0.1570796E+01
  0.1658283E+02  0.2561049E+02  0.1570796E+01  0.2299509E+02  0.3795949E-07  0.7529364E+02  0.1570796E+01
  0.1678384E+02  0.3620967E+02  0.1570796E+01  0.2246086E+02  0.6475678E-07  0.1064556E+03  0.1570796E+01
  0.1698485E+02  0.4583820E+02  0.1570796E+01  0.2172571E+02  0.9325780E-07  0.1347639E+03  0.1570796E+01
  0.1718586E+02  0.5445539E+02  0.1570796E+01  0.2079260E+02  0.4705861E-07  0.1600988E+03  0.1570796E+01
  0.1738687E+02  0.6202821E+02  0.1570796E+01  0.1966766E+02  0.3148382E-07  0.1823627E+03  0.1570796E+01
  0.1758788E+02  0.6853116E+02  0.1570796E+01  0.1835990E+02  0.3093647E-07  0.2014823E+03  0.1570796E+01
  0.1778889E+02  0.7394749E+02  0.1570796E+01  0.1688158E+02  0.1468847E-07  0.2174064E+03  0.1570796E+01
  0.1798990E+02  0.7826861E+02  0.1570796E+01  0.1524747E+02 -0.1001720E-07  0.2301102E+03  0.1570796E+01
  0.1819091E+02  0.8149475E+02  0.1570796E+01  0.1347509E+02  0.1082936E-07  0.2395953E+03  0.1570796E+01
  0.1839192E+02  0.8363526E+02  0.1570796E+01  0.1158434E+02  0.7448593E-07  0.2458891E+03  0.1570796E+01
  0.1859293E+02  0.8470921E+02  0.1570796E+01  0.9597141E+01 -0.9576799E-07  0.2490470E+03  0.1570796E+01
  0.1879394E+02  0.8474420E+02  0.1570796E+01  0.7537174E+01 -0.5081565E-08  0.2491492E+03  0.1570796E+01
  0.1899495E+02  0.8377684E+02  0.1570796E+01  0.5429645E+01  0.4564723E-07  0.2463052E+03  0.1570796E+01
  0.1919596E+02  0.8185286E+02  0.1570796E+01  0.3300841E+01  0.6979613E-07  0.2406490E+03  0.1570796E+01
  0.1939697E+02  0.7902686E+02  0.1570796E+01  0.1177757E+01 -0.2708598E-06  0.2323407E+03  0.1570796E+01
  0.1959798E+02  0.7536160E+02  0.1570796E+01  0.9122750E+00  0.3141592E+01  0.2215640E+03  0.1570796E+01
  0.1979899E+02  0.7092716E+02  0.1570796E+01  0.2942039E+01 -0.3141593E+01  0.2085275E+03  0.1570796E+01
  0.2000000E+02  0.6580151E+02  0.1570796E+01  0.4884736E+01 -0.3141592E+01  0.1934577E+03  0.1570796E+01
