 VARIABLES="Time (s)"
"AddedMass    1" "IRF    1"
"AddedMass    2" "IRF    2"
"AddedMass    3" "IRF    3"
Zone t="DoF    1",I=   800,F=POINT
  0.0000000E+00  0.3826848E+01  0.2807166E+03  0.2081177E-06 -0.3554348E-06  0.1125169E+02  0.8253184E+03
  0.1000000E-01  0.3826848E+01  0.2789285E+03  0.2081177E-06 -0.4086546E-06  0.1125169E+02  0.8200610E+03
  0.2000000E-01  0.3826848E+01  0.2735952E+03  0.2081177E-06 -0.5668740E-06  0.1125169E+02  0.8043810E+03
  0.3000000E-01  0.3826848E+01  0.2648095E+03  0.2081177E-06 -0.8258151E-06  0.1125169E+02  0.7785506E+03
  0.4000000E-01  0.3826848E+01  0.2527236E+03  0.2081177E-06 -0.1178491E-05  0.1125169E+02  0.7430179E+03
  0.5000000E-01  0.3826848E+01  0.2375458E+03  0.2081177E-06 -0.1615394E-05  0.1125169E+02  0.6983951E+03
  0.6000000E-01  0.3826848E+01  0.2195364E+03  0.2081177E-06 -0.2124766E-05  0.1125169E+02  0.6454463E+03
  0.7000000E-01  0.3826848E+01  0.1990010E+03  0.2081177E-06 -0.2692938E-05  0.1125169E+02  0.5850718E+03
  0.8000000E-01  0.3826848E+01  0.1762848E+03  0.2081177E-06 -0.3304710E-05  0.1125169E+02  0.5182855E+03
  0.9000000E-01  0.3826848E+01  0.1517650E+03  0.2081177E-06 -0.3943772E-05  0.1125169E+02  0.4461967E+03
  0.9999999E-01  0.3826848E+01  0.1258422E+03  0.2081177E-06 -0.4593152E-05  0.1125169E+02  0.3699828E+03
  0.1100000E+00  0.3826848E+01  0.9893287E+02  0.2081177E-06 -0.5235689E-05  0.1125169E+02  0.2908685E+03
  0.1200000E+00  0.3826848E+01  0.7146001E+02  0.2081177E-06 -0.5854473E-05  0.1125169E+02  0.2100975E+03
  0.1300000E+00  0.3826848E+01  0.4384507E+02  0.2081177E-06 -0.6433320E-05  0.1125169E+02  0.1289085E+03
  0.1400000E+00  0.3826848E+01  0.1649924E+02  0.2081177E-06 -0.6957172E-05  0.1125169E+02  0.4851100E+02
  0.1500000E+00  0.3826848E+01 -0.1018394E+02  0.2081177E-06 -0.7412466E-05  0.1125169E+02 -0.2993856E+02
  0.1600000E+00  0.3826848E+01 -0.3583641E+02  0.2081177E-06 -0.7787498E-05  0.1125169E+02 -0.1053577E+03
  0.1700000E+00  0.3826848E+01 -0.6012161E+02  0.2081177E-06 -0.8072633E-05  0.1125169E+02 -0.1767571E+03
  0.1800000E+00  0.3826848E+01 -0.8274026E+02  0.2081177E-06 -0.8260551E-05  0.1125169E+02 -0.2432568E+03
  0.1900000E+00  0.3826848E+01 -0.1034349E+03  0.2081177E-06 -0.8346350E-05  0.1125169E+02 -0.3041001E+03
  0.2000000E+00  0.3826848E+01 -0.1219932E+03  0.2081177E-06 -0.8327614E-05  0.1125169E+02 -0.3586623E+03
  0.2100000E+00  0.3826848E+01 -0.1382504E+03  0.2081177E-06 -0.8204387E-05  0.1125169E+02 -0.4064590E+03
  0.2200000E+00  0.3826848E+01 -0.1520900E+03  0.2081177E-06 -0.7979083E-05  0.1125169E+02 -0.4471481E+03
  0.2300000E+00  0.3826848E+01 -0.1634441E+03  0.2081177E-06 -0.7656335E-05  0.1125169E+02 -0.4805302E+03
  0.2400000E+00  0.3826848E+01 -0.1722922E+03  0.2081177E-06 -0.7242780E-05  0.1125169E+02 -0.5065440E+03
  0.2500000E+00  0.3826848E+01 -0.1786584E+03  0.2081177E-06 -0.6746803E-05  0.1125169E+02 -0.5252613E+03
  0.2600000E+00  0.3826848E+01 -0.1826090E+03  0.2081177E-06 -0.6178224E-05  0.1125169E+02 -0.5368765E+03
  0.2700000E+00  0.3826848E+01 -0.1842479E+03  0.2081177E-06 -0.5547971E-05  0.1125169E+02 -0.5416951E+03
  0.2800000E+00  0.3826848E+01 -0.1837122E+03  0.2081177E-06 -0.4867731E-05  0.1125169E+02 -0.5401208E+03
  0.2900000E+00  0.3826848E+01 -0.1811670E+03  0.2081177E-06 -0.4149602E-05  0.1125169E+02 -0.5326384E+03
  0.3000000E+00  0.3826848E+01 -0.1768000E+03  0.2081177E-06 -0.3405735E-05  0.1125169E+02 -0.5197993E+03
  0.3100000E+00  0.3826848E+01 -0.1708153E+03  0.2081177E-06 -0.2648004E-05  0.1125169E+02 -0.5022044E+03
  0.3200000E+00  0.3826848E+01 -0.1634282E+03  0.2081177E-06 -0.1887720E-05  0.1125169E+02 -0.4804864E+03
  0.3300000E+00  0.3826848E+01 -0.1548593E+03  0.2081177E-06 -0.1135340E-05  0.1125169E+02 -0.4552940E+03
  0.3400000E+00  0.3826848E+01 -0.1453291E+03  0.2081177E-06 -0.4002617E-06  0.1125169E+02 -0.4272753E+03
  0.3500000E+00  0.3826848E+01 -0.1350535E+03  0.2081177E-06  0.3093625E-06  0.1125169E+02 -0.3970649E+03
  0.3600000E+00  0.3826848E+01 -0.1242386E+03  0.2081177E-06  0.9867460E-06  0.1125169E+02 -0.3652692E+03
  0.3700000E+00  0.3826848E+01 -0.1130777E+03  0.2081177E-06  0.1626541E-05  0.1125169E+02 -0.3324557E+03
  0.3800000E+00  0.3826848E+01 -0.1017476E+03  0.2081177E-06  0.2224851E-05  0.1125169E+02 -0.2991456E+03
  0.3900000E+00  0.3826848E+01 -0.9040688E+02  0.2081177E-06  0.2779205E-05  0.1125169E+02 -0.2658035E+03
  0.4000000E+00  0.3826848E+01 -0.7919337E+02  0.2081177E-06  0.3288488E-05  0.1125169E+02 -0.2328353E+03
  0.4100000E+00  0.3826848E+01 -0.6822375E+02  0.2081177E-06  0.3752803E-05  0.1125169E+02 -0.2005845E+03
  0.4200000E+00  0.3826848E+01 -0.5759365E+02  0.2081177E-06  0.4173340E-05  0.1125169E+02 -0.1693316E+03
  0.4300000E+00  0.3826848E+01 -0.4737742E+02  0.2081177E-06  0.4552195E-05  0.1125169E+02 -0.1392956E+03
  0.4400000E+00  0.3826848E+01 -0.3762962E+02  0.2081177E-06  0.4892172E-05  0.1125169E+02 -0.1106367E+03
  0.4500000E+00  0.3826848E+01 -0.2838673E+02  0.2081177E-06  0.5196598E-05  0.1125169E+02 -0.8346206E+02
  0.4600000E+00  0.3826848E+01 -0.1966867E+02  0.2081177E-06  0.5469106E-05  0.1125169E+02 -0.5783056E+02
  0.4700000E+00  0.3826848E+01 -0.1148145E+02  0.2081177E-06  0.5713456E-05  0.1125169E+02 -0.3375967E+02
  0.4800000E+00  0.3826848E+01 -0.3819731E+01  0.2081177E-06  0.5933352E-05  0.1125169E+02 -0.1123377E+02
  0.4900000E+00  0.3826848E+01  0.3330679E+01  0.2081177E-06  0.6132304E-05  0.1125169E+02  0.9788888E+01
  0.5000000E+00  0.3826848E+01  0.9990312E+01  0.2081177E-06  0.6313486E-05  0.1125169E+02  0.2936866E+02
  0.5100000E+00  0.3826848E+01  0.1618321E+02  0.2081177E-06  0.6479645E-05  0.1125169E+02  0.4757625E+02
  0.5200000E+00  0.3826848E+01  0.2193487E+02  0.2081177E-06  0.6633049E-05  0.1125169E+02  0.6448662E+02
  0.5300000E+00  0.3826848E+01  0.2726991E+02  0.2081177E-06  0.6775444E-05  0.1125169E+02  0.8017212E+02
  0.5400000E+00  0.3826848E+01  0.3221062E+02  0.2081177E-06  0.6908069E-05  0.1125169E+02  0.9469827E+02
  0.5500000E+00  0.3826848E+01  0.3677533E+02  0.2081177E-06  0.7031695E-05  0.1125169E+02  0.1081189E+03
  0.5600000E+00  0.3826848E+01  0.4097746E+02  0.2081177E-06  0.7146648E-05  0.1125169E+02  0.1204736E+03
  0.5700000E+00  0.3826848E+01  0.4482502E+02  0.2081177E-06  0.7252935E-05  0.1125169E+02  0.1317859E+03
  0.5800000E+00  0.3826848E+01  0.4832048E+02  0.2081177E-06  0.7350318E-05  0.1125169E+02  0.1420631E+03
  0.5900000E+00  0.3826848E+01  0.5146090E+02  0.2081177E-06  0.7438404E-05  0.1125169E+02  0.1512962E+03
  0.6000000E+00  0.3826848E+01  0.5423842E+02  0.2081177E-06  0.7516776E-05  0.1125169E+02  0.1594625E+03
  0.6100000E+00  0.3826848E+01  0.5664130E+02  0.2081177E-06  0.7585070E-05  0.1125169E+02  0.1665273E+03
  0.6200000E+00  0.3826848E+01  0.5865485E+02  0.2081177E-06  0.7643087E-05  0.1125169E+02  0.1724475E+03
  0.6300000E+00  0.3826848E+01  0.6026289E+02  0.2081177E-06  0.7690852E-05  0.1125169E+02  0.1771754E+03
  0.6400000E+00  0.3826848E+01  0.6144909E+02  0.2081177E-06  0.7728670E-05  0.1125169E+02  0.1806631E+03
  0.6500000E+00  0.3826848E+01  0.6219830E+02  0.2081177E-06  0.7757160E-05  0.1125169E+02  0.1828660E+03
  0.6600000E+00  0.3826848E+01  0.6249809E+02  0.2081177E-06  0.7777247E-05  0.1125169E+02  0.1837475E+03
  0.6700000E+00  0.3826848E+01  0.6234010E+02  0.2081177E-06  0.7790150E-05  0.1125169E+02  0.1832832E+03
  0.6800000E+00  0.3826848E+01  0.6172094E+02  0.2081177E-06  0.7797324E-05  0.1125169E+02  0.1814632E+03
  0.6900000E+00  0.3826848E+01  0.6064368E+02  0.2081177E-06  0.7800354E-05  0.1125169E+02  0.1782961E+03
  0.7000000E+00  0.3826848E+01  0.5911794E+02  0.2081177E-06  0.7800922E-05  0.1125169E+02  0.1738104E+03
  0.7100000E+00  0.3826848E+01  0.5716065E+02  0.2081177E-06  0.7800604E-05  0.1125169E+02  0.1680562E+03
  0.7200000E+00  0.3826848E+01  0.5479641E+02  0.2081177E-06  0.7800825E-05  0.1125169E+02  0.1611052E+03
  0.7300000E+00  0.3826848E+01  0.5205672E+02  0.2081177E-06  0.7802650E-05  0.1125169E+02  0.1530506E+03
  0.7400000E+00  0.3826848E+01  0.4898015E+02  0.2081177E-06  0.7806719E-05  0.1125169E+02  0.1440054E+03
  0.7500000E+00  0.3826848E+01  0.4561133E+02  0.2081177E-06  0.7813073E-05  0.1125169E+02  0.1341010E+03
  0.7600000E+00  0.3826848E+01  0.4199998E+02  0.2081177E-06  0.7821070E-05  0.1125169E+02  0.1234835E+03
  0.7700000E+00  0.3826848E+01  0.3819975E+02  0.2081177E-06  0.7829291E-05  0.1125169E+02  0.1123107E+03
  0.7800000E+00  0.3826848E+01  0.3426707E+02  0.2081177E-06  0.7835479E-05  0.1125169E+02  0.1007485E+03
  0.7900000E+00  0.3826848E+01  0.3025951E+02  0.2081177E-06  0.7836524E-05  0.1125169E+02  0.8896609E+02
  0.8000000E+00  0.3826848E+01  0.2623436E+02  0.2081177E-06  0.7828476E-05  0.1125169E+02  0.7713203E+02
  0.8100000E+00  0.3826848E+01  0.2224721E+02  0.2081177E-06  0.7806569E-05  0.1125169E+02  0.6540961E+02
  0.8200000E+00  0.3826848E+01  0.1835052E+02  0.2081177E-06  0.7765349E-05  0.1125169E+02  0.5395311E+02
  0.8300000E+00  0.3826848E+01  0.1459227E+02  0.2081177E-06  0.7698758E-05  0.1125169E+02  0.4290372E+02
  0.8400000E+00  0.3826848E+01  0.1101486E+02  0.2081177E-06  0.7600343E-05  0.1125169E+02  0.3238594E+02
  0.8500000E+00  0.3826848E+01  0.7654144E+01  0.2081177E-06  0.7463415E-05  0.1125169E+02  0.2250524E+02
  0.8600000E+00  0.3826848E+01  0.4538797E+01  0.2081177E-06  0.7281283E-05  0.1125169E+02  0.1334590E+02
  0.8700000E+00  0.3826848E+01  0.1689703E+01  0.2081177E-06  0.7047497E-05  0.1125169E+02  0.4969391E+01
  0.8800000E+00  0.3826848E+01 -0.8800482E+00  0.2081177E-06  0.6756091E-05  0.1125169E+02 -0.2585894E+01
  0.8900000E+00  0.3826848E+01 -0.3165276E+01  0.2081177E-06  0.6401837E-05  0.1125169E+02 -0.9304641E+01
  0.9000000E+00  0.3826848E+01 -0.5168240E+01  0.2081177E-06  0.5980485E-05  0.1125169E+02 -0.1519357E+02
  0.9100000E+00  0.3826848E+01 -0.6898147E+01  0.2081177E-06  0.5489006E-05  0.1125169E+02 -0.2027965E+02
  0.9200000E+00  0.3826848E+01 -0.8370320E+01  0.2081177E-06  0.4925766E-05  0.1125169E+02 -0.2460798E+02
  0.9300000E+00  0.3826848E+01 -0.9605263E+01  0.2081177E-06  0.4290711E-05  0.1125169E+02 -0.2823892E+02
  0.9400000E+00  0.3826848E+01 -0.1062754E+02  0.2081177E-06  0.3585500E-05  0.1125169E+02 -0.3124454E+02
  0.9500000E+00  0.3826848E+01 -0.1146455E+02  0.2081177E-06  0.2813555E-05  0.1125169E+02 -0.3370553E+02
  0.9600000E+00  0.3826848E+01 -0.1214541E+02  0.2081177E-06  0.1980104E-05  0.1125169E+02 -0.3570736E+02
  0.9700000E+00  0.3826848E+01 -0.1269952E+02  0.2081177E-06  0.1092128E-05  0.1125169E+02 -0.3733653E+02
  0.9800000E+00  0.3826848E+01 -0.1315551E+02  0.2081177E-06  0.1582948E-06  0.1125169E+02 -0.3867726E+02
  0.9899999E+00  0.3826848E+01 -0.1354000E+02  0.2081177E-06 -0.8112114E-06  0.1125169E+02 -0.3980779E+02
  0.1000000E+01  0.3826848E+01 -0.1387683E+02  0.2081177E-06 -0.1804888E-05  0.1125169E+02 -0.4079817E+02
  0.1010000E+01  0.3826848E+01 -0.1418601E+02  0.2081177E-06 -0.2810151E-05  0.1125169E+02 -0.4170729E+02
  0.1020000E+01  0.3826848E+01 -0.1448326E+02  0.2081177E-06 -0.3813653E-05  0.1125169E+02 -0.4258132E+02
  0.1030000E+01  0.3826848E+01 -0.1477951E+02  0.2081177E-06 -0.4801599E-05  0.1125169E+02 -0.4345238E+02
  0.1040000E+01  0.3826848E+01 -0.1508072E+02  0.2081177E-06 -0.5760095E-05  0.1125169E+02 -0.4433802E+02
  0.1050000E+01  0.3826848E+01 -0.1538798E+02  0.2081177E-06 -0.6675526E-05  0.1125169E+02 -0.4524142E+02
  0.1060000E+01  0.3826848E+01 -0.1569756E+02  0.2081177E-06 -0.7534922E-05  0.1125169E+02 -0.4615170E+02
  0.1070000E+01  0.3826848E+01 -0.1600160E+02  0.2081177E-06 -0.8326314E-05  0.1125169E+02 -0.4704562E+02
  0.1080000E+01  0.3826848E+01 -0.1628840E+02  0.2081177E-06 -0.9039071E-05  0.1125169E+02 -0.4788889E+02
  0.1090000E+01  0.3826848E+01 -0.1654351E+02  0.2081177E-06 -0.9664228E-05  0.1125169E+02 -0.4863895E+02
  0.1100000E+01  0.3826848E+01 -0.1675034E+02  0.2081177E-06 -0.1019471E-04  0.1125169E+02 -0.4924709E+02
  0.1110000E+01  0.3826848E+01 -0.1689115E+02  0.2081177E-06 -0.1062558E-04  0.1125169E+02 -0.4966110E+02
  0.1120000E+01  0.3826848E+01 -0.1694810E+02  0.2081177E-06 -0.1095421E-04  0.1125169E+02 -0.4982856E+02
  0.1130000E+01  0.3826848E+01 -0.1690412E+02  0.2081177E-06 -0.1118028E-04  0.1125169E+02 -0.4969927E+02
  0.1140000E+01  0.3826848E+01 -0.1674384E+02  0.2081177E-06 -0.1130589E-04  0.1125169E+02 -0.4922809E+02
  0.1150000E+01  0.3826848E+01 -0.1645450E+02  0.2081177E-06 -0.1133550E-04  0.1125169E+02 -0.4837746E+02
  0.1160000E+01  0.3826848E+01 -0.1602655E+02  0.2081177E-06 -0.1127572E-04  0.1125169E+02 -0.4711927E+02
  0.1170000E+01  0.3826848E+01 -0.1545425E+02  0.2081177E-06 -0.1113522E-04  0.1125169E+02 -0.4543671E+02
  0.1180000E+01  0.3826848E+01 -0.1473614E+02  0.2081177E-06 -0.1092445E-04  0.1125169E+02 -0.4332547E+02
  0.1190000E+01  0.3826848E+01 -0.1387524E+02  0.2081177E-06 -0.1065530E-04  0.1125169E+02 -0.4079443E+02
  0.1200000E+01  0.3826848E+01 -0.1287906E+02  0.2081177E-06 -0.1034081E-04  0.1125169E+02 -0.3786563E+02
  0.1210000E+01  0.3826848E+01 -0.1175952E+02  0.2081177E-06 -0.9994716E-05  0.1125169E+02 -0.3457414E+02
  0.1220000E+01  0.3826848E+01 -0.1053256E+02  0.2081177E-06 -0.9631093E-05  0.1125169E+02 -0.3096684E+02
  0.1230000E+01  0.3826848E+01 -0.9217774E+01  0.2081177E-06 -0.9263926E-05  0.1125169E+02 -0.2710126E+02
  0.1240000E+01  0.3826848E+01 -0.7837652E+01  0.2081177E-06 -0.8906670E-05  0.1125169E+02 -0.2304366E+02
  0.1250000E+01  0.3826848E+01 -0.6416933E+01  0.2081177E-06 -0.8571857E-05  0.1125169E+02 -0.1886672E+02
  0.1260000E+01  0.3826848E+01 -0.4981765E+01  0.2081177E-06 -0.8270743E-05  0.1125169E+02 -0.1464724E+02
  0.1270000E+01  0.3826848E+01 -0.3558849E+01  0.2081177E-06 -0.8012932E-05  0.1125169E+02 -0.1046379E+02
  0.1280000E+01  0.3826848E+01 -0.2174512E+01  0.2081177E-06 -0.7806104E-05  0.1125169E+02 -0.6393763E+01
  0.1290000E+01  0.3826848E+01 -0.8538395E+00  0.2081177E-06 -0.7655796E-05  0.1125169E+02 -0.2510917E+01
  0.1300000E+01  0.3826848E+01  0.3801048E+00  0.2081177E-06 -0.7565214E-05  0.1125169E+02  0.1116956E+01
  0.1310000E+01  0.3826848E+01  0.1507147E+01  0.2081177E-06 -0.7535157E-05  0.1125169E+02  0.4430546E+01
  0.1320000E+01  0.3826848E+01  0.2510392E+01  0.2081177E-06 -0.7563977E-05  0.1125169E+02  0.7380197E+01
  0.1330000E+01  0.3826848E+01  0.3377036E+01  0.2081177E-06 -0.7647650E-05  0.1125169E+02  0.9928167E+01
  0.1340000E+01  0.3826848E+01  0.4098423E+01  0.2081177E-06 -0.7779863E-05  0.1125169E+02  0.1204916E+02
  0.1350000E+01  0.3826848E+01  0.4670483E+01  0.2081177E-06 -0.7952225E-05  0.1125169E+02  0.1373110E+02
  0.1360000E+01  0.3826848E+01  0.5093548E+01  0.2081177E-06 -0.8154523E-05  0.1125169E+02  0.1497497E+02
  0.1370000E+01  0.3826848E+01  0.5372351E+01  0.2081177E-06 -0.8375009E-05  0.1125169E+02  0.1579472E+02
  0.1380000E+01  0.3826848E+01  0.5515733E+01  0.2081177E-06 -0.8600745E-05  0.1125169E+02  0.1621635E+02
  0.1390000E+01  0.3826848E+01  0.5536061E+01  0.2081177E-06 -0.8818010E-05  0.1125169E+02  0.1627618E+02
  0.1400000E+01  0.3826848E+01  0.5448794E+01  0.2081177E-06 -0.9012678E-05  0.1125169E+02  0.1601966E+02
  0.1410000E+01  0.3826848E+01  0.5271861E+01  0.2081177E-06 -0.9170636E-05  0.1125169E+02  0.1549952E+02
  0.1420000E+01  0.3826848E+01  0.5024747E+01  0.2081177E-06 -0.9278201E-05  0.1125169E+02  0.1477305E+02
  0.1430000E+01  0.3826848E+01  0.4727982E+01  0.2081177E-06 -0.9322529E-05  0.1125169E+02  0.1390059E+02
  0.1440000E+01  0.3826848E+01  0.4402014E+01  0.2081177E-06 -0.9291958E-05  0.1125169E+02  0.1294229E+02
  0.1450000E+01  0.3826848E+01  0.4066784E+01  0.2081177E-06 -0.9176362E-05  0.1125169E+02  0.1195674E+02
  0.1460000E+01  0.3826848E+01  0.3740728E+01  0.2081177E-06 -0.8967467E-05  0.1125169E+02  0.1099813E+02
  0.1470000E+01  0.3826848E+01  0.3440383E+01  0.2081177E-06 -0.8659035E-05  0.1125169E+02  0.1011514E+02
  0.1480000E+01  0.3826848E+01  0.3179536E+01  0.2081177E-06 -0.8247103E-05  0.1125169E+02  0.9348237E+01
  0.1490000E+01  0.3826848E+01  0.2969006E+01  0.2081177E-06 -0.7730068E-05  0.1125169E+02  0.8729307E+01
  0.1500000E+01  0.3826848E+01  0.2816354E+01  0.2081177E-06 -0.7108754E-05  0.1125169E+02  0.8280501E+01
  0.1510000E+01  0.3826848E+01  0.2725603E+01  0.2081177E-06 -0.6386389E-05  0.1125169E+02  0.8013648E+01
  0.1520000E+01  0.3826848E+01  0.2697208E+01  0.2081177E-06 -0.5568546E-05  0.1125169E+02  0.7930153E+01
  0.1530000E+01  0.3826848E+01  0.2728303E+01  0.2081177E-06 -0.4663000E-05  0.1125169E+02  0.8021570E+01
  0.1540000E+01  0.3826848E+01  0.2812871E+01  0.2081177E-06 -0.3679547E-05  0.1125169E+02  0.8270186E+01
  0.1550000E+01  0.3826848E+01  0.2942089E+01  0.2081177E-06 -0.2629762E-05  0.1125169E+02  0.8650055E+01
  0.1560000E+01  0.3826848E+01  0.3104956E+01  0.2081177E-06 -0.1526723E-05  0.1125169E+02  0.9128867E+01
  0.1570000E+01  0.3826848E+01  0.3288582E+01  0.2081177E-06 -0.3846938E-06  0.1125169E+02  0.9668684E+01
  0.1580000E+01  0.3826848E+01  0.3479121E+01  0.2081177E-06  0.7811977E-06  0.1125169E+02  0.1022884E+02
  0.1590000E+01  0.3826848E+01  0.3662145E+01  0.2081177E-06  0.1955308E-05  0.1125169E+02  0.1076690E+02
  0.1600000E+01  0.3826848E+01  0.3823485E+01  0.2081177E-06  0.3121849E-05  0.1125169E+02  0.1124120E+02
  0.1610000E+01  0.3826848E+01  0.3949769E+01  0.2081177E-06  0.4265223E-05  0.1125169E+02  0.1161244E+02
  0.1620000E+01  0.3826848E+01  0.4028945E+01  0.2081177E-06  0.5370314E-05  0.1125169E+02  0.1184520E+02
  0.1630000E+01  0.3826848E+01  0.4051023E+01  0.2081177E-06  0.6422882E-05  0.1125169E+02  0.1191008E+02
  0.1640000E+01  0.3826848E+01  0.4008262E+01  0.2081177E-06  0.7409795E-05  0.1125169E+02  0.1178433E+02
  0.1650000E+01  0.3826848E+01  0.3895539E+01  0.2081177E-06  0.8319274E-05  0.1125169E+02  0.1145290E+02
  0.1660000E+01  0.3826848E+01  0.3710702E+01  0.2081177E-06  0.9141145E-05  0.1125169E+02  0.1090949E+02
  0.1670000E+01  0.3826848E+01  0.3454471E+01  0.2081177E-06  0.9866964E-05  0.1125169E+02  0.1015613E+02
  0.1680000E+01  0.3826848E+01  0.3130512E+01  0.2081177E-06  0.1049017E-04  0.1125169E+02  0.9203671E+01
  0.1690000E+01  0.3826848E+01  0.2745266E+01  0.2081177E-06  0.1100615E-04  0.1125169E+02  0.8071042E+01
  0.1700000E+01  0.3826848E+01  0.2307570E+01  0.2081177E-06  0.1141228E-04  0.1125169E+02  0.6784194E+01
  0.1710000E+01  0.3826848E+01  0.1828429E+01  0.2081177E-06  0.1170795E-04  0.1125169E+02  0.5375543E+01
  0.1720000E+01  0.3826848E+01  0.1320566E+01  0.2081177E-06  0.1189443E-04  0.1125169E+02  0.3882403E+01
  0.1730000E+01  0.3826848E+01  0.7977468E+00  0.2081177E-06  0.1197489E-04  0.1125169E+02  0.2345338E+01
  0.1740000E+01  0.3826848E+01  0.2743719E+00  0.2081177E-06  0.1195418E-04  0.1125169E+02  0.8065876E+00
  0.1750000E+01  0.3826848E+01 -0.2351117E+00  0.2081177E-06  0.1183877E-04  0.1125169E+02 -0.6912917E+00
  0.1760000E+01  0.3826848E+01 -0.7168317E+00  0.2081177E-06  0.1163652E-04  0.1125169E+02 -0.2107525E+01
  0.1770000E+01  0.3826848E+01 -0.1158004E+01  0.2081177E-06  0.1135649E-04  0.1125169E+02 -0.3404583E+01
  0.1780000E+01  0.3826848E+01 -0.1547341E+01  0.2081177E-06  0.1100873E-04  0.1125169E+02 -0.4549206E+01
  0.1790000E+01  0.3826848E+01 -0.1875648E+01  0.2081177E-06  0.1060412E-04  0.1125169E+02 -0.5514433E+01
  0.1800000E+01  0.3826848E+01 -0.2136005E+01  0.2081177E-06  0.1015404E-04  0.1125169E+02 -0.6279868E+01
  0.1810000E+01  0.3826848E+01 -0.2324001E+01  0.2081177E-06  0.9670223E-05  0.1125169E+02 -0.6832565E+01
  0.1820000E+01  0.3826848E+01 -0.2437989E+01  0.2081177E-06  0.9164501E-05  0.1125169E+02 -0.7167660E+01
  0.1830000E+01  0.3826848E+01 -0.2478961E+01  0.2081177E-06  0.8648583E-05  0.1125169E+02 -0.7288110E+01
  0.1840000E+01  0.3826848E+01 -0.2450529E+01  0.2081177E-06  0.8133859E-05  0.1125169E+02 -0.7204514E+01
  0.1850000E+01  0.3826848E+01 -0.2358791E+01  0.2081177E-06  0.7631176E-05  0.1125169E+02 -0.6934794E+01
  0.1860000E+01  0.3826848E+01 -0.2211927E+01  0.2081177E-06  0.7150675E-05  0.1125169E+02 -0.6502990E+01
  0.1870000E+01  0.3826848E+01 -0.2019833E+01  0.2081177E-06  0.6701606E-05  0.1125169E+02 -0.5938213E+01
  0.1880000E+01  0.3826848E+01 -0.1793848E+01  0.2081177E-06  0.6292199E-05  0.1125169E+02 -0.5273815E+01
  0.1890000E+01  0.3826848E+01 -0.1546046E+01  0.2081177E-06  0.5929471E-05  0.1125169E+02 -0.4545288E+01
  0.1900000E+01  0.3826848E+01 -0.1288932E+01  0.2081177E-06  0.5619171E-05  0.1125169E+02 -0.3789336E+01
  0.1910000E+01  0.3826848E+01 -0.1034706E+01  0.2081177E-06  0.5365662E-05  0.1125169E+02 -0.3041929E+01
  0.1920000E+01  0.3826848E+01 -0.7950364E+00  0.2081177E-06  0.5171824E-05  0.1125169E+02 -0.2337290E+01
  0.1930000E+01  0.3826848E+01 -0.5804064E+00  0.2081177E-06  0.5039054E-05  0.1125169E+02 -0.1706287E+01
  0.1940000E+01  0.3826848E+01 -0.3996044E+00  0.2081177E-06  0.4967177E-05  0.1125169E+02 -0.1174750E+01
  0.1950000E+01  0.3826848E+01 -0.2597783E+00  0.2081177E-06  0.4954500E-05  0.1125169E+02 -0.7636401E+00
  0.1960000E+01  0.3826848E+01 -0.1656872E+00  0.2081177E-06  0.4997803E-05  0.1125169E+02 -0.4870375E+00
  0.1970000E+01  0.3826848E+01 -0.1199687E+00  0.2081177E-06  0.5092381E-05  0.1125169E+02 -0.3526402E+00
  0.1980000E+01  0.3826848E+01 -0.1227856E+00  0.2081177E-06  0.5232152E-05  0.1125169E+02 -0.3609062E+00
  0.1990000E+01  0.3826848E+01 -0.1719295E+00  0.2081177E-06  0.5409723E-05  0.1125169E+02 -0.5054247E+00
  0.2000000E+01  0.3826848E+01 -0.2631151E+00  0.2081177E-06  0.5616526E-05  0.1125169E+02 -0.7735324E+00
  0.2010000E+01  0.3826848E+01 -0.3899745E+00  0.2081177E-06  0.5842990E-05  0.1125169E+02 -0.1146507E+01
  0.2020000E+01  0.3826848E+01 -0.5444893E+00  0.2081177E-06  0.6078686E-05  0.1125169E+02 -0.1600782E+01
  0.2030000E+01  0.3826848E+01 -0.7173347E+00  0.2081177E-06  0.6312539E-05  0.1125169E+02 -0.2108963E+01
  0.2040000E+01  0.3826848E+01 -0.8983228E+00  0.2081177E-06  0.6533078E-05  0.1125169E+02 -0.2641095E+01
  0.2050000E+01  0.3826848E+01 -0.1076833E+01  0.2081177E-06  0.6728607E-05  0.1125169E+02 -0.3165921E+01
  0.2060000E+01  0.3826848E+01 -0.1242346E+01  0.2081177E-06  0.6887521E-05  0.1125169E+02 -0.3652540E+01
  0.2070000E+01  0.3826848E+01 -0.1384803E+01  0.2081177E-06  0.6998521E-05  0.1125169E+02 -0.4071371E+01
  0.2080000E+01  0.3826848E+01 -0.1495126E+01  0.2081177E-06  0.7050906E-05  0.1125169E+02 -0.4395707E+01
  0.2090000E+01  0.3826848E+01 -0.1565691E+01  0.2081177E-06  0.7034812E-05  0.1125169E+02 -0.4603192E+01
  0.2100000E+01  0.3826848E+01 -0.1590395E+01  0.2081177E-06  0.6941492E-05  0.1125169E+02 -0.4675849E+01
  0.2110000E+01  0.3826848E+01 -0.1565267E+01  0.2081177E-06  0.6763534E-05  0.1125169E+02 -0.4601959E+01
  0.2120000E+01  0.3826848E+01 -0.1488439E+01  0.2081177E-06  0.6495101E-05  0.1125169E+02 -0.4376092E+01
  0.2130000E+01  0.3826848E+01 -0.1360252E+01  0.2081177E-06  0.6132113E-05  0.1125169E+02 -0.3999208E+01
  0.2140000E+01  0.3826848E+01 -0.1183336E+01  0.2081177E-06  0.5672418E-05  0.1125169E+02 -0.3479101E+01
  0.2150000E+01  0.3826848E+01 -0.9625154E+00  0.2081177E-06  0.5115930E-05  0.1125169E+02 -0.2829883E+01
  0.2160000E+01  0.3826848E+01 -0.7045265E+00  0.2081177E-06  0.4464688E-05  0.1125169E+02 -0.2071366E+01
  0.2170000E+01  0.3826848E+01 -0.4177516E+00  0.2081177E-06  0.3722898E-05  0.1125169E+02 -0.1228251E+01
  0.2180000E+01  0.3826848E+01 -0.1119736E+00  0.2081177E-06  0.2896898E-05  0.1125169E+02 -0.3292606E+00
  0.2190000E+01  0.3826848E+01  0.2020331E+00  0.2081177E-06  0.1995178E-05  0.1125169E+02  0.5939197E+00
  0.2200000E+01  0.3826848E+01  0.5130055E+00  0.2081177E-06  0.1028120E-05  0.1125169E+02  0.1508181E+01
  0.2210000E+01  0.3826848E+01  0.8095731E+00  0.2081177E-06  0.7918092E-08  0.1125169E+02  0.2380110E+01
  0.2220000E+01  0.3826848E+01  0.1080903E+01  0.2081177E-06 -0.1051663E-05  0.1125169E+02  0.3177826E+01
  0.2230000E+01  0.3826848E+01  0.1316841E+01  0.2081177E-06 -0.2135585E-05  0.1125169E+02  0.3871491E+01
  0.2240000E+01  0.3826848E+01  0.1508498E+01  0.2081177E-06 -0.3227812E-05  0.1125169E+02  0.4434976E+01
  0.2250000E+01  0.3826848E+01  0.1648805E+01  0.2081177E-06 -0.4311697E-05  0.1125169E+02  0.4847469E+01
  0.2260000E+01  0.3826848E+01  0.1732462E+01  0.2081177E-06 -0.5370318E-05  0.1125169E+02  0.5093444E+01
  0.2270000E+01  0.3826848E+01  0.1756332E+01  0.2081177E-06 -0.6386883E-05  0.1125169E+02  0.5163631E+01
  0.2280000E+01  0.3826848E+01  0.1719631E+01  0.2081177E-06 -0.7345135E-05  0.1125169E+02  0.5055718E+01
  0.2290000E+01  0.3826848E+01  0.1623845E+01  0.2081177E-06 -0.8229726E-05  0.1125169E+02  0.4774111E+01
  0.2300000E+01  0.3826848E+01  0.1472783E+01  0.2081177E-06 -0.9026613E-05  0.1125169E+02  0.4329985E+01
  0.2310000E+01  0.3826848E+01  0.1272425E+01  0.2081177E-06 -0.9723413E-05  0.1125169E+02  0.3740945E+01
  0.2320000E+01  0.3826848E+01  0.1030652E+01  0.2081177E-06 -0.1030970E-04  0.1125169E+02  0.3030141E+01
  0.2330000E+01  0.3826848E+01  0.7568781E+00  0.2081177E-06 -0.1077730E-04  0.1125169E+02  0.2225233E+01
  0.2340000E+01  0.3826848E+01  0.4619736E+00  0.2081177E-06 -0.1112052E-04  0.1125169E+02  0.1358226E+01
  0.2350000E+01  0.3826848E+01  0.1575043E+00  0.2081177E-06 -0.1133627E-04  0.1125169E+02  0.4630595E+00
  0.2360000E+01  0.3826848E+01 -0.1445898E+00  0.2081177E-06 -0.1142421E-04  0.1125169E+02 -0.4250765E+00
  0.2370000E+01  0.3826848E+01 -0.4324209E+00  0.2081177E-06 -0.1138672E-04  0.1125169E+02 -0.1271331E+01
  0.2380000E+01  0.3826848E+01 -0.6945518E+00  0.2081177E-06 -0.1122890E-04  0.1125169E+02 -0.2041983E+01
  0.2390000E+01  0.3826848E+01 -0.9207315E+00  0.2081177E-06 -0.1095841E-04  0.1125169E+02 -0.2706967E+01
  0.2400000E+01  0.3826848E+01 -0.1102001E+01  0.2081177E-06 -0.1058531E-04  0.1125169E+02 -0.3239897E+01
  0.2410000E+01  0.3826848E+01 -0.1231076E+01  0.2081177E-06 -0.1012179E-04  0.1125169E+02 -0.3619400E+01
  0.2420000E+01  0.3826848E+01 -0.1302898E+01  0.2081177E-06 -0.9581873E-05  0.1125169E+02 -0.3830570E+01
  0.2430000E+01  0.3826848E+01 -0.1314526E+01  0.2081177E-06 -0.8981017E-05  0.1125169E+02 -0.3864741E+01
  0.2440000E+01  0.3826848E+01 -0.1265350E+01  0.2081177E-06 -0.8335753E-05  0.1125169E+02 -0.3720176E+01
  0.2450000E+01  0.3826848E+01 -0.1157312E+01  0.2081177E-06 -0.7663256E-05  0.1125169E+02 -0.3402555E+01
  0.2460000E+01  0.3826848E+01 -0.9944891E+00  0.2081177E-06 -0.6980832E-05  0.1125169E+02 -0.2923844E+01
  0.2470000E+01  0.3826848E+01 -0.7831214E+00  0.2081177E-06 -0.6305526E-05  0.1125169E+02 -0.2302430E+01
  0.2480000E+01  0.3826848E+01 -0.5315645E+00  0.2081177E-06 -0.5653657E-05  0.1125169E+02 -0.1562863E+01
  0.2490000E+01  0.3826848E+01 -0.2495741E+00  0.2081177E-06 -0.5040391E-05  0.1125169E+02 -0.7338065E+00
  0.2500000E+01  0.3826848E+01  0.5174411E-01  0.2081177E-06 -0.4479356E-05  0.1125169E+02  0.1520687E+00
  0.2510000E+01  0.3826848E+01  0.3605762E+00  0.2081177E-06 -0.3982288E-05  0.1125169E+02  0.1060049E+01
  0.2520000E+01  0.3826848E+01  0.6647015E+00  0.2081177E-06 -0.3558758E-05  0.1125169E+02  0.1954154E+01
  0.2530000E+01  0.3826848E+01  0.9520719E+00  0.2081177E-06 -0.3215929E-05  0.1125169E+02  0.2799037E+01
  0.2540000E+01  0.3826848E+01  0.1211154E+01  0.2081177E-06 -0.2958398E-05  0.1125169E+02  0.3560739E+01
  0.2550000E+01  0.3826848E+01  0.1431610E+01  0.2081177E-06 -0.2788151E-05  0.1125169E+02  0.4208881E+01
  0.2560000E+01  0.3826848E+01  0.1604408E+01  0.2081177E-06 -0.2704503E-05  0.1125169E+02  0.4716935E+01
  0.2570000E+01  0.3826848E+01  0.1722310E+01  0.2081177E-06 -0.2704197E-05  0.1125169E+02  0.5063560E+01
  0.2580000E+01  0.3826848E+01  0.1780140E+01  0.2081177E-06 -0.2781575E-05  0.1125169E+02  0.5233591E+01
  0.2590000E+01  0.3826848E+01  0.1775102E+01  0.2081177E-06 -0.2928712E-05  0.1125169E+02  0.5218796E+01
  0.2600000E+01  0.3826848E+01  0.1706559E+01  0.2081177E-06 -0.3135776E-05  0.1125169E+02  0.5017285E+01
  0.2610000E+01  0.3826848E+01  0.1576422E+01  0.2081177E-06 -0.3391302E-05  0.1125169E+02  0.4634688E+01
  0.2620000E+01  0.3826848E+01  0.1388952E+01  0.2081177E-06 -0.3682556E-05  0.1125169E+02  0.4083517E+01
  0.2630000E+01  0.3826848E+01  0.1150431E+01  0.2081177E-06 -0.3995974E-05  0.1125169E+02  0.3382286E+01
  0.2640000E+01  0.3826848E+01  0.8692112E+00  0.2081177E-06 -0.4317531E-05  0.1125169E+02  0.2555500E+01
  0.2650000E+01  0.3826848E+01  0.5551350E+00  0.2081177E-06 -0.4633191E-05  0.1125169E+02  0.1632131E+01
  0.2660000E+01  0.3826848E+01  0.2193592E+00  0.2081177E-06 -0.4929303E-05  0.1125169E+02  0.6449416E+00
  0.2670000E+01  0.3826848E+01 -0.1261487E+00  0.2081177E-06 -0.5192999E-05  0.1125169E+02 -0.3708397E+00
  0.2680000E+01  0.3826848E+01 -0.4690811E+00  0.2081177E-06 -0.5412560E-05  0.1125169E+02 -0.1379050E+01
  0.2690000E+01  0.3826848E+01 -0.7972324E+00  0.2081177E-06 -0.5577708E-05  0.1125169E+02 -0.2343818E+01
  0.2700000E+01  0.3826848E+01 -0.1098824E+01  0.2081177E-06 -0.5679893E-05  0.1125169E+02 -0.3230500E+01
  0.2710000E+01  0.3826848E+01 -0.1363291E+01  0.2081177E-06 -0.5712477E-05  0.1125169E+02 -0.4008024E+01
  0.2720000E+01  0.3826848E+01 -0.1581213E+01  0.2081177E-06 -0.5670909E-05  0.1125169E+02 -0.4648724E+01
  0.2730000E+01  0.3826848E+01 -0.1745030E+01  0.2081177E-06 -0.5552753E-05  0.1125169E+02 -0.5130341E+01
  0.2740000E+01  0.3826848E+01 -0.1849171E+01  0.2081177E-06 -0.5357715E-05  0.1125169E+02 -0.5436509E+01
  0.2750000E+01  0.3826848E+01 -0.1890195E+01  0.2081177E-06 -0.5087590E-05  0.1125169E+02 -0.5557129E+01
  0.2760000E+01  0.3826848E+01 -0.1866988E+01  0.2081177E-06 -0.4746120E-05  0.1125169E+02 -0.5488892E+01
  0.2770000E+01  0.3826848E+01 -0.1780801E+01  0.2081177E-06 -0.4338808E-05  0.1125169E+02 -0.5235507E+01
  0.2780000E+01  0.3826848E+01 -0.1635166E+01  0.2081177E-06 -0.3872721E-05  0.1125169E+02 -0.4807366E+01