VARIABLES="w (rad/s)"
"A   1   1" "B   1   1"
"A   1   2" "B   1   2"
"A   1   3" "B   1   3"
Zone t="Motion of body    1 in DoF   1",I=   100,F=POINT
  0.1000000E+00  0.6881845E+01 -0.3071220E-11  0.5583570E-06  0.4377685E-10  0.2023357E+02 -0.9029280E-11
  0.3010101E+00  0.6876725E+01  0.1642446E-07  0.6565062E-06  0.1234093E-08  0.2021847E+02  0.4829020E-07
  0.5020202E+00  0.6894443E+01  0.6874507E-06  0.5073834E-06  0.5488223E-08  0.2027060E+02  0.2021198E-05
  0.7030303E+00  0.6936453E+01  0.7331928E-05  0.1093561E-05  0.2172530E-07  0.2039411E+02  0.2155702E-04
  0.9040404E+00  0.6971180E+01  0.4260740E-04  0.7305250E-06  0.3231274E-07  0.2049625E+02  0.1252721E-03
  0.1105051E+01  0.7010294E+01  0.1729577E-03  0.7539783E-06  0.5705956E-07  0.2061119E+02  0.5085210E-03
  0.1306061E+01  0.7038205E+01  0.5537437E-03  0.7093337E-06  0.8246788E-07  0.2069329E+02  0.1628088E-02
  0.1507071E+01  0.7053983E+01  0.1496752E-02  0.4546704E-06  0.1194015E-06  0.2073961E+02  0.4400670E-02
  0.1708081E+01  0.7114974E+01  0.3572034E-02  0.2054210E-06  0.1799604E-06  0.2091899E+02  0.1050231E-01
  0.1909091E+01  0.7139088E+01  0.7705614E-02  0.4230754E-06  0.2325839E-06  0.2098989E+02  0.2265562E-01
  0.2110101E+01  0.7212061E+01  0.1539860E-01 -0.7834211E-08  0.1305125E-07  0.2120439E+02  0.4527404E-01
  0.2311111E+01  0.7254007E+01  0.2878578E-01  0.4301770E-06  0.1205490E-06  0.2132771E+02  0.8463418E-01
  0.2512121E+01  0.7330531E+01  0.5105944E-01  0.7572193E-06  0.3769592E-06  0.2155273E+02  0.1501217E+00
  0.2713131E+01  0.7419662E+01  0.8655819E-01  0.6364131E-06  0.2062134E-06  0.2181479E+02  0.2544927E+00
  0.2914141E+01  0.7487962E+01  0.1408604E+00  0.8069581E-07 -0.2856177E-07  0.2201559E+02  0.4141488E+00
  0.3115151E+01  0.7591325E+01  0.2218416E+00  0.1744464E-06  0.3185560E-06  0.2231951E+02  0.6522438E+00
  0.3316161E+01  0.7715934E+01  0.3393777E+00  0.9308561E-06  0.1142667E-05  0.2268587E+02  0.9978126E+00
  0.3517171E+01  0.7835497E+01  0.5053151E+00  0.1509321E-06  0.4119138E-06  0.2303737E+02  0.1485691E+01
  0.3718182E+01  0.7949154E+01  0.7341492E+00  0.6980820E-06  0.1903201E-05  0.2337155E+02  0.2158493E+01
  0.3919192E+01  0.8100340E+01  0.1045562E+01  0.1217860E-06  0.1419554E-05  0.2381599E+02  0.3074080E+01
  0.4120202E+01  0.8268783E+01  0.1461532E+01 -0.3992963E-06  0.2683082E-06  0.2431127E+02  0.4297071E+01
  0.4321212E+01  0.8439660E+01  0.2007217E+01 -0.1031711E-05 -0.2085842E-05  0.2481359E+02  0.5901458E+01
  0.4522222E+01  0.8602108E+01  0.2710320E+01 -0.1063287E-05 -0.5229784E-05  0.2529127E+02  0.7968655E+01
  0.4723232E+01  0.8766995E+01  0.3603307E+01 -0.1824892E-05 -0.1093559E-04  0.2577613E+02  0.1059412E+02
  0.4924242E+01  0.8954950E+01  0.4725910E+01 -0.3751775E-05 -0.1794967E-04  0.2632864E+02  0.1389471E+02
  0.5125252E+01  0.9144279E+01  0.6116018E+01 -0.4371640E-05 -0.2428330E-04  0.2688522E+02  0.1798178E+02
  0.5326262E+01  0.9320158E+01  0.7811727E+01 -0.2342530E-05 -0.1522142E-04  0.2740234E+02  0.2296723E+02
  0.5527273E+01  0.9471581E+01  0.9847756E+01 -0.4291589E-06  0.1345412E-05  0.2784756E+02  0.2895337E+02
  0.5728283E+01  0.9585787E+01  0.1224960E+02 -0.5196159E-06 -0.5359761E-06  0.2818324E+02  0.3601506E+02
  0.5929293E+01  0.9664363E+01  0.1503478E+02 -0.3455571E-07  0.1790468E-06  0.2841429E+02  0.4420362E+02
  0.6130303E+01  0.9710743E+01  0.1821338E+02  0.8325278E-07  0.2913410E-05  0.2855061E+02  0.5354905E+02
  0.6331313E+01  0.9704950E+01  0.2177083E+02  0.1400372E-06 -0.2300367E-06  0.2853365E+02  0.6400817E+02
  0.6532323E+01  0.9632200E+01  0.2566540E+02 -0.1568286E-07  0.1557637E-05  0.2831973E+02  0.7545851E+02
  0.6733334E+01  0.9482055E+01  0.2982411E+02  0.1921198E-06 -0.2020970E-05  0.2787825E+02  0.8768533E+02
  0.6934343E+01  0.9258452E+01  0.3414724E+02  0.3607454E-06  0.3695022E-05  0.2722080E+02  0.1003955E+03
  0.7135354E+01  0.8961917E+01  0.3852376E+02  0.2915867E-06  0.8339062E-05  0.2634900E+02  0.1132629E+03
  0.7336363E+01  0.8591232E+01  0.4282340E+02  0.1671880E-06  0.6320886E-05  0.2525914E+02  0.1259037E+03
  0.7537374E+01  0.8153917E+01  0.4690673E+02  0.1034944E-05 -0.8326024E-06  0.2397338E+02  0.1379091E+03
  0.7738384E+01  0.7665514E+01  0.5064443E+02  0.8135731E-07  0.2154149E-05  0.2253742E+02  0.1488975E+03
  0.7939394E+01  0.7140614E+01  0.5393419E+02  0.3656365E-06 -0.2371613E-05  0.2099422E+02  0.1585699E+03
  0.8140405E+01  0.6592236E+01  0.5669110E+02  0.3380739E-06  0.1168810E-05  0.1938195E+02  0.1666757E+03
  0.8341414E+01  0.6038013E+01  0.5887656E+02 -0.2305582E-06  0.5480833E-05  0.1775247E+02  0.1731007E+03
  0.8542424E+01  0.5493250E+01  0.6047629E+02  0.4996534E-06 -0.2001412E-05  0.1615084E+02  0.1778037E+03
  0.8743435E+01  0.4968749E+01  0.6150028E+02  0.3685481E-06  0.7450581E-08  0.1460878E+02  0.1808140E+03
  0.8944445E+01  0.4473088E+01  0.6197703E+02  0.2692621E-06 -0.1047738E-06  0.1315153E+02  0.1822153E+03
  0.9145455E+01  0.4014585E+01  0.6197167E+02  0.5091723E-07  0.2348330E-05  0.1180353E+02  0.1821998E+03
  0.9346465E+01  0.3597108E+01  0.6154444E+02  0.8800590E-06  0.7497147E-06  0.1057611E+02  0.1809437E+03
  0.9547475E+01  0.3221117E+01  0.6074143E+02  0.6666327E-06  0.2607703E-07  0.9470683E+01  0.1785828E+03
  0.9748485E+01  0.2887479E+01  0.5963696E+02  0.6590012E-06  0.8675270E-06  0.8489797E+01  0.1753355E+03
  0.9949495E+01  0.2595468E+01  0.5829438E+02  0.7709309E-06 -0.1722015E-05  0.7631260E+01  0.1713874E+03
  0.1015051E+02  0.2342526E+01  0.5675373E+02  0.9759586E-06  0.4335307E-06  0.6887613E+01  0.1668581E+03
  0.1035151E+02  0.2125706E+01  0.5507019E+02  0.3821914E-06  0.7511117E-06  0.6250164E+01  0.1619078E+03
  0.1055252E+02  0.1942121E+01  0.5328040E+02  0.2292889E-06  0.1017703E-05  0.5710423E+01  0.1566465E+03
  0.1075354E+02  0.1788728E+01  0.5141663E+02  0.1321610E-06  0.9173527E-06  0.5259445E+01  0.1511667E+03
  0.1095455E+02  0.1662539E+01  0.4951221E+02  0.4216842E-07 -0.7566996E-08  0.4888444E+01  0.1455673E+03
  0.1115556E+02  0.1561029E+01  0.4759044E+02 -0.3255917E-08  0.5355105E-06  0.4590022E+01  0.1399171E+03
  0.1135657E+02  0.1480493E+01  0.4566552E+02  0.3321299E-07  0.1692795E-05  0.4353249E+01  0.1342577E+03
  0.1155758E+02  0.1418890E+01  0.4375597E+02  0.3382795E-06 -0.4450558E-06  0.4172142E+01  0.1286434E+03
  0.1175859E+02  0.1374340E+01  0.4187682E+02  0.1218151E-06  0.5000038E-07  0.4041172E+01  0.1231189E+03
  0.1195960E+02  0.1344309E+01  0.4003494E+02  0.7380744E-06 -0.3591995E-06  0.3952892E+01  0.1177039E+03
  0.1216061E+02  0.1327029E+01  0.3824076E+02  0.7742762E-07  0.4023081E-05  0.3902090E+01  0.1124285E+03
  0.1236162E+02  0.1319821E+01  0.3648780E+02  0.6446831E-06  0.7187482E-06  0.3880892E+01  0.1072749E+03
  0.1256263E+02  0.1322825E+01  0.3479896E+02 -0.3973602E-06  0.1411740E-05  0.3889738E+01  0.1023099E+03
  0.1276364E+02  0.1333820E+01  0.3317165E+02  0.2489629E-06  0.6701826E-05  0.3922069E+01  0.9752523E+02
  0.1296465E+02  0.1350938E+01  0.3159792E+02 -0.8748132E-06 -0.3894340E-05  0.3972401E+01  0.9289845E+02
  0.1316566E+02  0.1374024E+01  0.3009637E+02  0.1576767E-05 -0.6166170E-05  0.4040284E+01  0.8848383E+02
  0.1336667E+02  0.1401963E+01  0.2865115E+02  0.1266134E-05 -0.4648748E-05  0.4122422E+01  0.8423487E+02
  0.1356768E+02  0.1433802E+01  0.2726872E+02  0.9130856E-06  0.4284312E-05  0.4216037E+01  0.8017057E+02
  0.1376869E+02  0.1468555E+01  0.2594683E+02  0.6053834E-06  0.4082820E-05  0.4318226E+01  0.7628422E+02
  0.1396970E+02  0.1505956E+01  0.2469196E+02 -0.3757371E-06 -0.5480390E-05  0.4428182E+01  0.7259464E+02
  0.1417071E+02  0.1544108E+01  0.2347676E+02  0.6895517E-06  0.6809089E-05  0.4540353E+01  0.6902214E+02
  0.1437172E+02  0.1583868E+01  0.2233316E+02  0.1478792E-06  0.5951952E-05  0.4657253E+01  0.6565961E+02
  0.1457273E+02  0.1624720E+01  0.2123358E+02  0.6884233E-06  0.3055960E-05  0.4777359E+01  0.6242700E+02
  0.1477374E+02  0.1665931E+01  0.2018545E+02  0.8202642E-06  0.5435417E-05  0.4898525E+01  0.5934525E+02
  0.1497475E+02  0.1706322E+01  0.1917346E+02  0.1292368E-06  0.3906418E-05  0.5017268E+01  0.5637014E+02
  0.1517576E+02  0.1746070E+01  0.1819948E+02  0.1319435E-06  0.2334011E-05  0.5134138E+01  0.5350663E+02
  0.1537677E+02  0.1784573E+01  0.1725757E+02  0.3510455E-06  0.1339969E-05  0.5247329E+01  0.5073740E+02
  0.1557778E+02  0.1820499E+01  0.1632246E+02  0.5078165E-06  0.2120185E-05  0.5352961E+01  0.4798825E+02
  0.1577879E+02  0.1849746E+01  0.1536869E+02  0.6931743E-06 -0.1165667E-05  0.5438956E+01  0.4518411E+02
  0.1597980E+02  0.1860289E+01  0.1421550E+02  0.3611106E-06 -0.7282069E-06  0.5469944E+01  0.4179375E+02
  0.1618081E+02  0.1766064E+01  0.1060326E+02  0.2790374E-06 -0.9182259E-06  0.5192930E+01  0.3117374E+02
  0.1638182E+02  0.2228953E+01  0.1412020E+02  0.7606661E-06 -0.3553287E-05  0.6553831E+01  0.4151366E+02
  0.1658283E+02  0.2141053E+01  0.1325861E+02 -0.1409663E-06 -0.7080635E-06  0.6295409E+01  0.3898053E+02
  0.1678384E+02  0.2152167E+01  0.1245584E+02 -0.1853341E-06 -0.1060547E-05  0.6328067E+01  0.3662041E+02
  0.1698485E+02  0.2179248E+01  0.1175112E+02  0.6196078E-07 -0.8789721E-06  0.6407698E+01  0.3454855E+02
  0.1718586E+02  0.2212173E+01  0.1110023E+02  0.5299901E-07 -0.5536858E-06  0.6504516E+01  0.3263482E+02
  0.1738687E+02  0.2247300E+01  0.1047737E+02  0.2732871E-06  0.1088119E-05  0.6607782E+01  0.3080363E+02
  0.1758788E+02  0.2283145E+01  0.9913658E+01  0.4593102E-06  0.1697728E-05  0.6713156E+01  0.2914633E+02
  0.1778889E+02  0.2319428E+01  0.9379876E+01  0.4162156E-06  0.1649882E-05  0.6819839E+01  0.2757701E+02
  0.1798990E+02  0.2355431E+01  0.8885312E+01  0.4641626E-06  0.8227071E-06  0.6925676E+01  0.2612300E+02
  0.1819091E+02  0.2391352E+01  0.8408798E+01  0.5895863E-06  0.5330658E-06  0.7031303E+01  0.2472204E+02
  0.1839192E+02  0.2426651E+01  0.7974988E+01  0.4980714E-06 -0.3351597E-06  0.7135079E+01  0.2344656E+02
  0.1859293E+02  0.2460711E+01  0.7586268E+01  0.4089360E-06  0.1397711E-06  0.7235216E+01  0.2230379E+02
  0.1879394E+02  0.2495081E+01  0.7193308E+01  0.2274547E-06 -0.1153967E-06  0.7336265E+01  0.2114846E+02
  0.1899495E+02  0.2527874E+01  0.6841462E+01  0.1726837E-06  0.2301094E-06  0.7432686E+01  0.2011396E+02
  0.1919596E+02  0.2558636E+01  0.6531679E+01  0.3218591E-06  0.5938928E-06  0.7523112E+01  0.1920317E+02
  0.1939697E+02  0.2589169E+01  0.6232126E+01  0.5028967E-06  0.5852344E-06  0.7612894E+01  0.1832254E+02
  0.1959798E+02  0.2618312E+01  0.5954651E+01  0.6054221E-07  0.2519999E-05  0.7698566E+01  0.1750673E+02
  0.1979899E+02  0.2645862E+01  0.5690257E+01  0.8786865E-07  0.1147535E-05  0.7779564E+01  0.1672946E+02
  0.2000000E+02  0.2672605E+01  0.5430054E+01  0.4568137E-06  0.2293076E-05  0.7858186E+01  0.1596444E+02
Zone t="Motion of body    1 in DoF   2",I=   100,F=POINT
  0.1000000E+00  0.1979060E-07  0.4604317E-11  0.5079617E+01  0.1877228E-03  0.1466833E-06  0.6679102E-11
  0.3010101E+00 -0.1527658E-06  0.2211209E-09  0.5089932E+01  0.5097338E-02 -0.3001171E-06  0.8967618E-09
  0.5020202E+00  0.2817509E-07  0.4815774E-09  0.5130396E+01  0.2343668E-01 -0.1196572E-06  0.1109583E-09
  0.7030303E+00  0.4388155E-07  0.8440111E-09  0.5188039E+01  0.6350235E-01  0.2275217E-06  0.4874892E-09
  0.9040404E+00  0.3036450E-06  0.1306034E-08  0.5213293E+01  0.1326116E+00  0.1210459E-05 -0.1820445E-07
  0.1105051E+01  0.3192055E-07  0.1311128E-07  0.5234903E+01  0.2367528E+00  0.9017820E-07  0.1174340E-07
  0.1306061E+01 -0.6881196E-07  0.3637979E-10  0.5249381E+01  0.3802965E+00 -0.1030397E-06  0.8731149E-10
  0.1507071E+01  0.7709158E-07  0.2179877E-07  0.5255095E+01  0.5657716E+00  0.6025194E-06 -0.6204937E-07
  0.1708081E+01  0.9173747E-07  0.1979060E-08  0.5249128E+01  0.7937465E+00  0.5305234E-06 -0.3253808E-07
  0.1909091E+01  0.1692790E-06 -0.3285822E-07  0.5232574E+01  0.1062793E+01  0.8615177E-06 -0.8149073E-07
  0.2110101E+01  0.3673252E-06 -0.2514571E-07  0.5200773E+01  0.1369599E+01  0.1407068E-05  0.9324867E-07
  0.2311111E+01  0.1787199E-06  0.1682201E-07  0.5156476E+01  0.1709051E+01  0.7144767E-06  0.5960464E-07
  0.2512121E+01  0.4823218E-06 -0.2590241E-07  0.5103326E+01  0.2074420E+01  0.1220078E-05 -0.7962808E-07
  0.2713131E+01  0.6724559E-06 -0.4330650E-07  0.5034204E+01  0.2458076E+01  0.1492172E-05 -0.2239831E-06
  0.2914141E+01  0.3640100E-06 -0.2188608E-07  0.4959895E+01  0.2850908E+01  0.1166174E-05 -0.5378388E-06
  0.3115151E+01 -0.2148067E-06  0.5355105E-07  0.4873442E+01  0.3244282E+01 -0.9785140E-06 -0.5587935E-07
  0.3316161E+01  0.2896902E-06  0.5017500E-07  0.4782874E+01  0.3628088E+01  0.6481870E-06 -0.1224689E-06
  0.3517171E+01 -0.3064980E-06  0.2518063E-06  0.4684072E+01  0.3993834E+01 -0.9363084E-06  0.5268957E-06
  0.3718182E+01 -0.4940677E-06  0.2352754E-06  0.4584493E+01  0.4332477E+01 -0.1674195E-05  0.1464505E-06
  0.3919192E+01 -0.8506011E-06  0.1338776E-07  0.4482978E+01  0.4636153E+01 -0.2484672E-05 -0.3785826E-06
  0.4120202E+01 -0.8734111E-06 -0.3853347E-07  0.4378372E+01  0.4898642E+01 -0.2587684E-05  0.1117587E-07
  0.4321212E+01 -0.9993823E-06 -0.3338791E-06  0.4278212E+01  0.5113194E+01 -0.2690164E-05 -0.1545530E-05
  0.4522222E+01  0.4732583E-06 -0.5938346E-06  0.4181055E+01  0.5275931E+01  0.1746813E-05 -0.1574401E-05
  0.4723232E+01  0.3709925E-06  0.5250331E-07  0.4086828E+01  0.5384548E+01  0.1315185E-05 -0.1941808E-06
  0.4924242E+01 -0.1056670E-05 -0.2210727E-06  0.3999000E+01  0.5437041E+01 -0.3052939E-05  0.6984919E-08
  0.5125252E+01 -0.1514029E-05 -0.6507616E-06  0.3919055E+01  0.5432208E+01 -0.4369823E-05 -0.1193024E-05
  0.5326262E+01 -0.8247027E-06 -0.3627501E-06  0.3844335E+01  0.5371815E+01 -0.2338508E-05 -0.9397045E-06
  0.5527273E+01 -0.9671662E-06 -0.6076880E-06  0.3776746E+01  0.5257949E+01 -0.2471160E-05 -0.1631677E-05
  0.5728283E+01 -0.1655097E-06 -0.6810296E-07  0.3720634E+01  0.5094977E+01 -0.5059589E-06 -0.1147855E-05
  0.5929293E+01 -0.1390868E-06 -0.4342292E-06  0.3673995E+01  0.4886618E+01 -0.7533146E-06 -0.1407228E-05
  0.6130303E+01 -0.7535288E-07  0.6674090E-06  0.3633838E+01  0.4638762E+01 -0.2327432E-06  0.2373708E-05
  0.6331313E+01  0.4648292E-06  0.1918990E-05  0.3601212E+01  0.4355064E+01  0.1322116E-05  0.6410293E-05
  0.6532323E+01  0.3836597E-06  0.1187203E-05  0.3578667E+01  0.4044098E+01  0.1240657E-05  0.3365101E-05
  0.6733334E+01  0.8170280E-06  0.2606888E-05  0.3566019E+01  0.3714284E+01  0.2494100E-05  0.7611001E-05
  0.6934343E+01  0.6548752E-06  0.1848035E-05  0.3559610E+01  0.3369399E+01  0.1865508E-05  0.5250564E-05
  0.7135354E+01  0.2171891E-06  0.1800130E-05  0.3558745E+01  0.3014698E+01  0.4690970E-06  0.5466864E-05
  0.7336363E+01  0.2538922E-09  0.5457550E-06  0.3564074E+01  0.2656458E+01  0.7235927E-07  0.1009321E-05
  0.7537374E+01  0.1407355E-05  0.7875322E-05  0.3576437E+01  0.2306413E+01  0.4077995E-05  0.2199924E-04
  0.7738384E+01  0.1421346E-06  0.2502406E-05  0.3594707E+01  0.1973724E+01  0.2676607E-06  0.7648021E-05
  0.7939394E+01  0.3753728E-06  0.3220979E-05  0.3616070E+01  0.1655203E+01  0.9740924E-06  0.8776668E-05
  0.8140405E+01  0.2383106E-06  0.2220389E-05  0.3639789E+01  0.1353118E+01  0.4523669E-06  0.6831135E-05
  0.8341414E+01 -0.6793929E-06 -0.2882705E-05  0.3666065E+01  0.1071556E+01 -0.2238368E-05 -0.8405885E-05
  0.8542424E+01  0.6857560E-06  0.5468202E-05  0.3694495E+01  0.8200775E+00  0.1717770E-05  0.1611601E-04
  0.8743435E+01  0.3691872E-06  0.3880501E-05  0.3725034E+01  0.6042024E+00  0.1036195E-05  0.1189986E-04
  0.8944445E+01  0.2038729E-06  0.3396752E-05  0.3756475E+01  0.4243971E+00  0.5435222E-06  0.1011172E-04
  0.9145455E+01  0.2065203E-06  0.3182082E-05  0.3787280E+01  0.2726021E+00  0.6105994E-06  0.9067473E-05
  0.9346465E+01  0.6223787E-06  0.9717092E-05  0.3817217E+01  0.1506213E+00  0.1988104E-05  0.2826136E-04
  0.9547475E+01  0.5756218E-06  0.7391460E-05  0.3846112E+01  0.6025681E-01  0.1609127E-05  0.2206551E-04
  0.9748485E+01  0.5332770E-06  0.5931690E-05  0.3873929E+01 -0.7669018E-03  0.1575183E-05  0.1746856E-04
  0.9949495E+01  0.4275877E-06  0.7769276E-05  0.3900574E+01 -0.2858048E-01  0.9165802E-06  0.2277043E-04
  0.1015051E+02  0.3975584E-06  0.6627623E-05  0.3925583E+01 -0.2395696E-01  0.9802710E-06  0.1947253E-04
  0.1035151E+02  0.1388233E-06  0.2172830E-05  0.3948314E+01  0.4935309E-02  0.3638376E-06  0.6388920E-05
  0.1055252E+02  0.1566543E-06  0.3262730E-05  0.3968793E+01  0.5423532E-01  0.4952923E-06  0.9590163E-05
  0.1075354E+02  0.2433632E-07  0.4369562E-05  0.3986790E+01  0.1223113E+00  0.1267914E-06  0.1293107E-04
  0.1095455E+02  0.2984095E-07  0.6966366E-06  0.4002422E+01  0.2068845E+00 -0.3638726E-07  0.2282977E-05
  0.1115556E+02 -0.3740131E-07 -0.3130681E-05  0.4015996E+01  0.3085557E+00 -0.8715840E-07 -0.9662399E-05
  0.1135657E+02  0.7585682E-07  0.2509805E-06  0.4027583E+01  0.4251399E+00  0.2171555E-06  0.6332411E-06
  0.1155758E+02  0.6124164E-07  0.3874025E-05  0.4037190E+01  0.5514485E+00  0.4054841E-06  0.1086379E-04
  0.1175859E+02 -0.5781862E-07  0.1189845E-05  0.4044947E+01  0.6850262E+00 -0.3899985E-06  0.4026168E-05
  0.1195960E+02  0.1780163E-06  0.3999152E-05  0.4050359E+01  0.8240747E+00  0.5575662E-06  0.1168796E-04
  0.1216061E+02  0.4120283E-07  0.6471482E-06  0.4053608E+01  0.9732097E+00  0.1899313E-06  0.1578846E-05
  0.1236162E+02  0.2088421E-06  0.2273646E-06  0.4054363E+01  0.1136824E+01  0.4568608E-06  0.5273760E-06
  0.1256263E+02 -0.2339681E-06  0.4132296E-05  0.4050639E+01  0.1355880E+01 -0.6313282E-06  0.1214418E-04
  0.1276364E+02  0.2226948E-06 -0.1269742E-05  0.4021704E+01  0.1995561E+01  0.7413432E-06 -0.2849265E-05
  0.1296465E+02 -0.1194194E-05  0.5297188E-06  0.4096457E+01  0.6742300E+00 -0.3300124E-05  0.1436332E-05
  0.1316566E+02  0.3433660E-06 -0.3391069E-06  0.4074191E+01  0.1228598E+01  0.1075795E-05 -0.1248511E-05
  0.1336667E+02  0.4701668E-06  0.5210622E-06  0.4067684E+01  0.1426868E+01  0.1284249E-05  0.1271681E-05
  0.1356768E+02  0.5354133E-08  0.4754584E-05  0.4063690E+01  0.1559563E+01 -0.1317940E-07  0.1335274E-04
  0.1376869E+02 -0.1893937E-08  0.4511403E-05  0.4060216E+01  0.1662378E+01 -0.1634197E-06  0.1241617E-04
  0.1396970E+02  0.2349357E-06 -0.5156792E-05  0.4056713E+01  0.1747652E+01  0.7896078E-06 -0.1525095E-04
  0.1417071E+02  0.2392268E-07  0.7330509E-05  0.4053242E+01  0.1828831E+01 -0.6046393E-08  0.2180093E-04
  0.1437172E+02  0.2121632E-06  0.6616530E-05  0.4049649E+01  0.1898586E+01  0.6648731E-06  0.2026744E-04
  0.1457273E+02  0.1951768E-06  0.5735568E-05  0.4045890E+01  0.1969190E+01  0.6038083E-06  0.1621265E-04
  0.1477374E+02 -0.2169804E-06  0.8222611E-05  0.4041746E+01  0.2033946E+01 -0.3989111E-06  0.2364137E-04
  0.1497475E+02  0.2253869E-06  0.4684836E-05  0.4037550E+01  0.2096028E+01  0.4502763E-06  0.1430700E-04
  0.1517576E+02  0.9401744E-07  0.3444529E-05  0.4033392E+01  0.2151254E+01  0.3421940E-06  0.9747964E-05
  0.1537677E+02  0.4590968E-07  0.2722642E-05  0.4029355E+01  0.2198465E+01  0.1279172E-06  0.8574105E-05
  0.1557778E+02  0.1662032E-06  0.1227116E-05  0.4025836E+01  0.2234368E+01  0.5409376E-06  0.3092995E-05
  0.1577879E+02  0.5084302E-06 -0.2570123E-06  0.4022575E+01  0.2267065E+01  0.1334408E-05 -0.9617361E-06
  0.1597980E+02  0.3158843E-06 -0.5934271E-06  0.4019506E+01  0.2292957E+01  0.1061185E-05 -0.2666857E-05
  0.1618081E+02  0.2882466E-06  0.2934721E-06  0.4016154E+01  0.2315391E+01  0.5497866E-06  0.1925931E-05
  0.1638182E+02  0.5204139E-06  0.2512934E-06  0.4012617E+01  0.2338680E+01  0.1722357E-05  0.9567739E-06
  0.1658283E+02 -0.2427315E-06  0.4266076E-06  0.4009026E+01  0.2357525E+01 -0.5135440E-06  0.1412962E-05
  0.1678384E+02 -0.2373830E-06  0.2348388E-06  0.4005185E+01  0.2378998E+01 -0.5602194E-06  0.7011258E-06
  0.1698485E+02 -0.1118584E-07 -0.5009861E-06  0.4001061E+01  0.2393798E+01  0.8597743E-07 -0.1106338E-05
  0.1718586E+02 -0.1157524E-06 -0.3664172E-07  0.3996779E+01  0.2403403E+01 -0.3108408E-06  0.9432551E-07
  0.1738687E+02  0.1681932E-06  0.6288974E-06  0.3992504E+01  0.2407309E+01  0.5373611E-06  0.1421620E-05
  0.1758788E+02  0.2576670E-06  0.7194831E-06  0.3988707E+01  0.2403561E+01  0.9726319E-06  0.1813620E-05
  0.1778889E+02  0.1726640E-06  0.1041022E-05  0.3985305E+01  0.2394575E+01  0.5541165E-06  0.3088368E-05
  0.1798990E+02  0.3230398E-06 -0.6156843E-06  0.3982415E+01  0.2376109E+01  0.8514996E-06 -0.1424953E-05
  0.1819091E+02  0.4876015E-06 -0.5679176E-06  0.3979741E+01  0.2354747E+01  0.1317200E-05 -0.1843015E-05
  0.1839192E+02  0.4105696E-06 -0.2353627E-06  0.3977174E+01  0.2328317E+01  0.1304424E-05 -0.4759640E-06
  0.1859293E+02  0.3083549E-06 -0.5726833E-06  0.3974384E+01  0.2303970E+01  0.1021438E-05 -0.1343797E-05
  0.1879394E+02  0.2213100E-06  0.1333829E-06  0.3971244E+01  0.2258424E+01  0.7001047E-06 -0.7007038E-06
  0.1899495E+02  0.5461943E-07 -0.5102920E-06  0.3967056E+01  0.2216903E+01  0.4667657E-07 -0.1580833E-05
  0.1919596E+02  0.1722339E-06  0.1567940E-05  0.3960747E+01  0.2159209E+01  0.5263080E-06  0.4050424E-05
  0.1939697E+02  0.7163661E-07  0.6156748E-05  0.3945024E+01  0.2009437E+01  0.5646425E-07  0.1896992E-04
  0.1959798E+02 -0.1457955E-06 -0.1087839E-04  0.3999469E+01  0.6091019E-01 -0.4242706E-06 -0.3210787E-04
  0.1979899E+02  0.1579566E-06  0.4068133E-06  0.3998615E+01  0.1962539E+01  0.3367985E-06  0.1407752E-05
  0.2000000E+02  0.2640299E-06  0.2268378E-05  0.3983786E+01  0.2027790E+01  0.7595867E-06  0.6710878E-05
Zone t="Motion of body    1 in DoF   3",I=   100,F=POINT
  0.1000000E+00  0.2023358E+02 -0.8544521E-11  0.2133311E-05  0.1328506E-09  0.5948937E+02 -0.2512031E-10
  0.3010101E+00  0.2021849E+02  0.4810369E-07  0.2083030E-05  0.3667990E-08  0.5944527E+02  0.1414312E-06
  0.5020202E+00  0.2027058E+02  0.2021311E-05  0.1862107E-05  0.1583289E-07  0.5959834E+02  0.5942928E-05
  0.7030303E+00  0.2039411E+02  0.2155819E-04  0.3173712E-05  0.6967510E-07  0.5996156E+02  0.6338440E-04
  0.9040404E+00  0.2049628E+02  0.1252713E-03  0.2897891E-05  0.1159183E-06  0.6026167E+02  0.3683163E-03
  0.1105051E+01  0.2061124E+02  0.5085195E-03  0.2486222E-05  0.2030878E-06  0.6059970E+02  0.1495124E-02
  0.1306061E+01  0.2069330E+02  0.1628093E-02  0.2195922E-05  0.2612865E-06  0.6084113E+02  0.4786837E-02
  0.1507071E+01  0.2073964E+02  0.4400680E-02  0.1638235E-05  0.3824730E-06  0.6097727E+02  0.1293863E-01
  0.1708081E+01  0.2091899E+02  0.1050233E-01  0.1195722E-05  0.4992430E-06  0.6150467E+02  0.3087836E-01
  0.1909091E+01  0.2098990E+02  0.2265565E-01  0.1011283E-05  0.5911938E-06  0.6171311E+02  0.6661085E-01
  0.2110101E+01  0.2120439E+02  0.4527407E-01  0.1112237E-06  0.6227947E-07  0.6234389E+02  0.1331123E+00
  0.2311111E+01  0.2132774E+02  0.8463415E-01  0.1382208E-05  0.7040744E-06  0.6270637E+02  0.2488363E+00
  0.2512121E+01  0.2155276E+02  0.1501220E+00  0.2440526E-05  0.1184901E-05  0.6336795E+02  0.4413794E+00
  0.2713131E+01  0.2181479E+02  0.2544930E+00  0.1841616E-05  0.4765825E-06  0.6413845E+02  0.7482434E+00
  0.2914141E+01  0.2201557E+02  0.4141493E+00  0.7497519E-06 -0.4107278E-07  0.6472869E+02  0.1217654E+01
  0.3115151E+01  0.2231953E+02  0.6522443E+00  0.3037489E-06  0.1158478E-05  0.6562227E+02  0.1917687E+01
  0.3316161E+01  0.2268586E+02  0.9978138E+00  0.3520094E-05  0.3900714E-05  0.6669933E+02  0.2933705E+01
  0.3517171E+01  0.2303740E+02  0.1485692E+01  0.1143377E-05  0.2034591E-05  0.6773277E+02  0.4368112E+01
  0.3718182E+01  0.2337156E+02  0.2158493E+01  0.1346068E-05  0.4889327E-05  0.6871543E+02  0.6346242E+01
  0.3919192E+01  0.2381606E+02  0.3074086E+01  0.3131980E-06  0.4879839E-05  0.7002212E+02  0.9038171E+01
  0.4120202E+01  0.2431128E+02  0.4297081E+01 -0.1255868E-05  0.5703769E-06  0.7147815E+02  0.1263392E+02
  0.4321212E+01  0.2481365E+02  0.5901453E+01 -0.3902699E-05 -0.7286901E-05  0.7295510E+02  0.1735096E+02
  0.4522222E+01  0.2529128E+02  0.7968655E+01 -0.3277798E-05 -0.1637801E-04  0.7435938E+02  0.2342878E+02
  0.4723232E+01  0.2577612E+02  0.1059413E+02 -0.5842417E-05 -0.3221072E-04  0.7578483E+02  0.3114792E+02
  0.4924242E+01  0.2632868E+02  0.1389472E+02 -0.1153580E-04 -0.5476526E-04  0.7740940E+02  0.4085196E+02
  0.5125252E+01  0.2688520E+02  0.1798174E+02 -0.1257705E-04 -0.7050810E-04  0.7904573E+02  0.5286826E+02
  0.5326262E+01  0.2740233E+02  0.2296728E+02 -0.6610911E-05 -0.4416658E-04  0.8056606E+02  0.6752621E+02
  0.5527273E+01  0.2784752E+02  0.2895342E+02 -0.1261023E-05  0.4644971E-05  0.8187488E+02  0.8512600E+02
  0.5728283E+01  0.2818331E+02  0.3601507E+02 -0.7491834E-06 -0.2064276E-05  0.8286226E+02  0.1058877E+03
  0.5929293E+01  0.2841430E+02  0.4420363E+02 -0.2356071E-06  0.2627727E-05  0.8354124E+02  0.1299627E+03
  0.6130303E+01  0.2855066E+02  0.5354900E+02 -0.3080960E-06  0.5707145E-05  0.8394225E+02  0.1574390E+03
  0.6331313E+01  0.2853366E+02  0.6400825E+02  0.1176783E-08 -0.1282431E-05  0.8389204E+02  0.1881897E+03
  0.6532323E+01  0.2831975E+02  0.7545858E+02  0.6649531E-06  0.4488975E-05  0.8326313E+02  0.2218546E+03
  0.6733334E+01  0.2787828E+02  0.8768551E+02  0.8005685E-06 -0.3605150E-05  0.8196513E+02  0.2578021E+03
  0.6934343E+01  0.2722077E+02  0.1003954E+03  0.1286650E-05  0.9149313E-05  0.8003217E+02  0.2951706E+03
  0.7135354E+01  0.2634897E+02  0.1132630E+03  0.9538567E-06  0.2056360E-04  0.7746889E+02  0.3330014E+03
  0.7336363E+01  0.2525912E+02  0.1259039E+03  0.2538922E-06  0.1842529E-04  0.7426461E+02  0.3701671E+03
  0.7537374E+01  0.2397337E+02  0.1379093E+03  0.2788022E-05 -0.5697832E-05  0.7048439E+02  0.4054628E+03
  0.7738384E+01  0.2253743E+02  0.1488980E+03  0.4082307E-06  0.5653128E-05  0.6626260E+02  0.4377694E+03
  0.7939394E+01  0.2099422E+02  0.1585698E+03  0.1331166E-05 -0.7458031E-05  0.6172534E+02  0.4662061E+03
  0.8140405E+01  0.1938198E+02  0.1666752E+03  0.9784121E-06  0.3803521E-05  0.5698515E+02  0.4900359E+03
  0.8341414E+01  0.1775248E+02  0.1731008E+03 -0.3412037E-06  0.1176074E-04  0.5219448E+02  0.5089260E+03
  0.8542424E+01  0.1615086E+02  0.1778034E+03  0.1673724E-05 -0.9033829E-05  0.4748553E+02  0.5227527E+03
  0.8743435E+01  0.1460876E+02  0.1808141E+03  0.7639384E-06  0.7469207E-06  0.4295184E+02  0.5316027E+03
  0.8944445E+01  0.1315153E+02  0.1822156E+03  0.8844209E-06  0.1041219E-05  0.3866745E+02  0.5357234E+03
  0.9145455E+01  0.1180352E+02  0.1821999E+03  0.2533642E-06  0.3826804E-05  0.3470427E+02  0.5356755E+03
  0.9346465E+01  0.1057611E+02  0.1809437E+03  0.2477358E-05  0.1903623E-05  0.3109556E+02  0.5319830E+03
  0.9547475E+01  0.9470689E+01  0.1785827E+03  0.2008287E-05 -0.1494773E-05  0.2784567E+02  0.5250422E+03
  0.9748485E+01  0.8489789E+01  0.1753355E+03  0.2354750E-05  0.2523884E-05  0.2496177E+02  0.5154930E+03
  0.9949495E+01  0.7631255E+01  0.1713876E+03  0.2444963E-05 -0.5655922E-05  0.2243766E+02  0.5038860E+03
  0.1015051E+02  0.6887625E+01  0.1668581E+03  0.2823371E-05 -0.1137145E-05  0.2025133E+02  0.4905688E+03
  0.1035151E+02  0.6250177E+01  0.1619079E+03  0.1267494E-05  0.1837499E-05  0.1837722E+02  0.4760154E+03
  0.1055252E+02  0.5710430E+01  0.1566465E+03  0.7914793E-06  0.3096648E-05  0.1679037E+02  0.4605461E+03
  0.1075354E+02  0.5259451E+01  0.1511668E+03  0.2591256E-06 -0.4470348E-06  0.1546449E+02  0.4444344E+03
  0.1095455E+02  0.4888453E+01  0.1455675E+03  0.9521900E-08 -0.3911555E-07  0.1437382E+02  0.4279733E+03
  0.1115556E+02  0.4590034E+01  0.1399171E+03 -0.2638128E-06  0.8982606E-06  0.1349644E+02  0.4113600E+03
  0.1135657E+02  0.4353259E+01  0.1342578E+03  0.2758728E-06  0.5566049E-05  0.1280035E+02  0.3947220E+03
  0.1155758E+02  0.4172146E+01  0.1286436E+03  0.9908252E-06 -0.1478242E-05  0.1226791E+02  0.3782155E+03
  0.1175859E+02  0.4041176E+01  0.1231189E+03  0.1112018E-06 -0.9965152E-07  0.1188285E+02  0.3619724E+03
  0.1195960E+02  0.3952901E+01  0.1177038E+03  0.2156753E-05  0.5634502E-06  0.1162333E+02  0.3460511E+03
  0.1216061E+02  0.3902097E+01  0.1124284E+03  0.1562338E-06  0.1213234E-04  0.1147400E+02  0.3305423E+03
  0.1236162E+02  0.3880907E+01  0.1072749E+03  0.1881989E-05  0.9898795E-06  0.1141171E+02  0.3153900E+03
  0.1256263E+02  0.3889748E+01  0.1023099E+03 -0.1184667E-05  0.3811903E-05  0.1143772E+02  0.3007928E+03
  0.1276364E+02  0.3922072E+01  0.9752521E+02  0.6777161E-06  0.2035504E-04  0.1153279E+02  0.2867266E+03
  0.1296465E+02  0.3972409E+01  0.9289843E+02 -0.2689810E-05 -0.1050544E-04  0.1168078E+02  0.2731234E+03
  0.1316566E+02  0.4040287E+01  0.8848382E+02  0.4495024E-05 -0.1998502E-04  0.1188037E+02  0.2601440E+03
  0.1336667E+02  0.4122433E+01  0.8423490E+02  0.3710890E-05 -0.1298763E-04  0.1212190E+02  0.2476517E+03
  0.1356768E+02  0.4216043E+01  0.8017057E+02  0.2512049E-05  0.1061027E-04  0.1239712E+02  0.2357025E+03
  0.1376869E+02  0.4318232E+01  0.7628421E+02  0.1912065E-05  0.1149601E-04  0.1269756E+02  0.2242762E+03
  0.1396970E+02  0.4428191E+01  0.7259469E+02 -0.1290413E-05 -0.1567569E-04  0.1302088E+02  0.2134294E+03
  0.1417071E+02  0.4540367E+01  0.6902213E+02  0.1922753E-05  0.2241760E-04  0.1335066E+02  0.2029256E+03
  0.1437172E+02  0.4657263E+01  0.6565966E+02  0.9246012E-06  0.1804921E-04  0.1369436E+02  0.1930407E+03
  0.1457273E+02  0.4777363E+01  0.6242705E+02  0.2095179E-05  0.1131441E-04  0.1404747E+02  0.1835365E+03
  0.1477374E+02  0.4898529E+01  0.5934533E+02  0.2128703E-05  0.1519540E-04  0.1440370E+02  0.1744758E+03
  0.1497475E+02  0.5017278E+01  0.5637017E+02  0.3783814E-06  0.1142413E-04  0.1475283E+02  0.1657291E+03
  0.1517576E+02  0.5134149E+01  0.5350668E+02  0.3034088E-06  0.7620838E-05  0.1509642E+02  0.1573105E+03
  0.1537677E+02  0.5247352E+01  0.5073748E+02  0.1052167E-05  0.4218309E-05  0.1542924E+02  0.1491688E+03